
     Program PWSCF v.7.2 starts on 11Nov2025 at 17:47:31 

     This program is part of the open-source Quantum ESPRESSO suite
     for quantum simulation of materials; please cite
         "P. Giannozzi et al., J. Phys.:Condens. Matter 21 395502 (2009);
         "P. Giannozzi et al., J. Phys.:Condens. Matter 29 465901 (2017);
         "P. Giannozzi et al., J. Chem. Phys. 152 154105 (2020);
          URL http://www.quantum-espresso.org", 
     in publications or presentations arising from this work. More details at
     http://www.quantum-espresso.org/quote

     Parallel version (MPI), running on    48 processors

     MPI processes distributed on     1 nodes
     240976 MiB available memory on the printing compute node when the environment starts
 
     Reading input from MnBi2Te4.scf.in

     Current dimensions of program PWSCF are:
     Max number of different atomic species (ntypx) = 10
     Max number of k-points (npk) =  40000
     Max angular momentum in pseudopotentials (lmaxx) =  4
     file Mn.rel-pbe-spn-kjpaw_psl.0.3.1.UPF: wavefunction(s)  3P 3P 3D renormalized
     file Mn.rel-pbe-spn-kjpaw_psl.0.3.1.UPF: wavefunction(s)  3P 3P 3D renormalized
     file Bi.rel-pbe-dn-kjpaw_psl.1.0.0.UPF: wavefunction(s)  6P 6P 5D 5D renormalized
     file Te.rel-pbe-n-kjpaw_psl.1.0.0.UPF: wavefunction(s)  5S 5P 5P renormalized

     Fixed quantization axis for GGA:     0.000000    0.000000    1.000000
     Message from routine setup:
     using ibrav=0 with symmetry is DISCOURAGED, use correct ibrav instead
 
     R & G space division:  proc/nbgrp/npool/nimage =      48
     Subspace diagonalization in iterative solution of the eigenvalue problem:
     one sub-group per band group will be used
     scalapack distributed-memory algorithm (size of sub-group:  2*  2 procs)

 
     Parallelization info
     --------------------
     sticks:   dense  smooth     PW     G-vecs:    dense   smooth      PW
     Min         350     168     49                11768     3915     621
     Max         351     169     50                11770     3917     622
     Sum       16819    8079   2353               564899   187971   29827
 
     Using Slab Decomposition
 


     bravais-lattice index     =            0
     lattice parameter (alat)  =      51.7756  a.u.
     unit-cell volume          =    2994.5793 (a.u.)^3
     number of atoms/cell      =           14
     number of atomic types    =            4
     number of electrons       =       138.00
     number of Kohn-Sham states=          166
     kinetic-energy cutoff     =      60.0000  Ry
     charge density cutoff     =     500.0000  Ry
     scf convergence threshold =      1.0E-06
     mixing beta               =       0.3000
     number of iterations used =            8  local-TF  mixing
     Exchange-correlation= SLA  PW   PBX  PBC
                           (   1   4   3   4   0   0   0)
     Noncollinear calculation with spin-orbit


     celldm(1)=  51.775642  celldm(2)=   0.000000  celldm(3)=   0.000000
     celldm(4)=   0.000000  celldm(5)=   0.000000  celldm(6)=   0.000000

     crystal axes: (cart. coord. in units of alat)
               a(1) = (   0.079085  -0.045660   0.995822 )  
               a(2) = (   0.000000   0.091319   0.995822 )  
               a(3) = (  -0.079085  -0.045660   0.995822 )  

     reciprocal axes: (cart. coord. in units 2 pi/alat)
               b(1) = (  6.322314 -3.650196  0.334731 )  
               b(2) = (  0.000000  7.300392  0.334734 )  
               b(3) = ( -6.322314 -3.650196  0.334731 )  


     PseudoPot. # 1 for Mn read from file:
     ./Mn.rel-pbe-spn-kjpaw_psl.0.3.1.UPF
     MD5 check sum: dfba1c7561257014502ac20495784078
     Pseudo is Projector augmented-wave + core cor, Zval = 15.0
     Generated using &quot;atomic&quot; code by A. Dal Corso  v.6.2.2
     Shape of augmentation charge: PSQ
     Using radial grid of 1187 points, 10 beta functions with: 
                l(1) =   0
                l(2) =   0
                l(3) =   1
                l(4) =   1
                l(5) =   1
                l(6) =   1
                l(7) =   2
                l(8) =   2
                l(9) =   2
               l(10) =   2
     Q(r) pseudized with 0 coefficients 


     PseudoPot. # 2 for Mn read from file:
     ./Mn.rel-pbe-spn-kjpaw_psl.0.3.1.UPF
     MD5 check sum: dfba1c7561257014502ac20495784078
     Pseudo is Projector augmented-wave + core cor, Zval = 15.0
     Generated using &quot;atomic&quot; code by A. Dal Corso  v.6.2.2
     Shape of augmentation charge: PSQ
     Using radial grid of 1187 points, 10 beta functions with: 
                l(1) =   0
                l(2) =   0
                l(3) =   1
                l(4) =   1
                l(5) =   1
                l(6) =   1
                l(7) =   2
                l(8) =   2
                l(9) =   2
               l(10) =   2
     Q(r) pseudized with 0 coefficients 


     PseudoPot. # 3 for Bi read from file:
     ./Bi.rel-pbe-dn-kjpaw_psl.1.0.0.UPF
     MD5 check sum: 8010b987e9fb97324c8de82fb26a3f7d
     Pseudo is Projector augmented-wave + core cor, Zval = 15.0
     Generated using &quot;atomic&quot; code by A. Dal Corso  v.6.2.2
     Shape of augmentation charge: PSQ
     Using radial grid of 1283 points, 10 beta functions with: 
                l(1) =   0
                l(2) =   0
                l(3) =   1
                l(4) =   1
                l(5) =   1
                l(6) =   1
                l(7) =   2
                l(8) =   2
                l(9) =   2
               l(10) =   2
     Q(r) pseudized with 0 coefficients 


     PseudoPot. # 4 for Te read from file:
     ./Te.rel-pbe-n-kjpaw_psl.1.0.0.UPF
     MD5 check sum: 8399411061dffbb19b40ade5049f5146
     Pseudo is Projector augmented-wave + core cor, Zval =  6.0
     Generated using &quot;atomic&quot; code by A. Dal Corso  v.6.3
     Shape of augmentation charge: PSQ
     Using radial grid of 1245 points, 10 beta functions with: 
                l(1) =   0
                l(2) =   0
                l(3) =   1
                l(4) =   1
                l(5) =   1
                l(6) =   1
                l(7) =   2
                l(8) =   2
                l(9) =   2
               l(10) =   2
     Q(r) pseudized with 0 coefficients 


     atomic species   valence    mass     pseudopotential
        Mn1           15.00    54.93800     Mn( 1.00)
        Mn2           15.00    54.93800     Mn( 1.00)
        Bi            15.00   208.98000     Bi( 1.00)
        Te             6.00   127.60300     Te( 1.00)

      2 Sym. Ops. (no inversion) found


                                    s                        frac. trans.

      isym =  1     identity                                     

 Time Reversal            0
 cryst.   s( 1) = (     1          0          0      )
                  (     0          1          0      )
                  (     0          0          1      )

 cart.    s( 1) = (  1.0000000  0.0000000  0.0000000 )
                  (  0.0000000  1.0000000  0.0000000 )
                  (  0.0000000  0.0000000  1.0000000 )


      isym =  2     inv. 180 deg rotation - cart. axis [1,0,0]   

 Time Reversal            1
 cryst.   s( 2) = (     0          0          1      )
                  (     0          1          0      )
                  (     1          0          0      )

 cart.    s( 2) = ( -1.0000000  0.0000000  0.0000000 )
                  (  0.0000000  1.0000000  0.0000000 )
                  (  0.0000000  0.0000000  1.0000000 )


   Cartesian axes

     site n.     atom                  positions (alat units)
         1           Mn1 tau(   1) = (   0.0000000   0.0000000   0.0000000  )
         2           Mn2 tau(   2) = (   0.0000000   0.0000000   1.4937321  )
         3           Bi  tau(   3) = (   0.0000000   0.0000000   0.6350517  )
         4           Bi  tau(   4) = (   0.0000000   0.0000000   2.1280538  )
         5           Bi  tau(   5) = (   0.0000000   0.0000000   0.8586803  )
         6           Bi  tau(   6) = (   0.0000000   0.0000000   2.3531423  )
         7           Te  tau(   7) = (   0.0000000   0.0000000   0.1992041  )
         8           Te  tau(   8) = (   0.0000000   0.0000000   1.6929361  )
         9           Te  tau(   9) = (   0.0000000   0.0000000   1.2945279  )
        10           Te  tau(  10) = (   0.0000000   0.0000000   2.7882600  )
        11           Te  tau(  11) = (   0.0000000   0.0000000   0.4392469  )
        12           Te  tau(  12) = (   0.0000000   0.0000000   1.9329789  )
        13           Te  tau(  13) = (   0.0000000   0.0000000   1.0544852  )
        14           Te  tau(  14) = (   0.0000000   0.0000000   2.5482172  )

     --------------------------------------------
     DFT-D3 Dispersion Correction (3-body terms):
     --------------------------------------------
       Reference C6 values for interpolation: 

         atom   Coordination number   C6
         Mn1        0.000          1605.50
         Mn1        1.641           479.11
         Mn1        9.885           227.69
         Mn2        0.000          1605.50
         Mn2        1.641           479.11
         Mn2        9.885           227.69
         Te         0.000           851.07
         Te         0.981           850.20
         Te         1.964           837.16
         Bi         0.000          1235.06
         Bi         0.982          1188.09
         Bi         1.966          1132.10
         Bi         2.950          1067.76

       Values used:

         atom   Coordination number  R0_AB[au]  C6      C8
         Mn1        3.848            3.351    479.11  48433.79
         Mn2        3.848            3.351    479.11  48433.79
         Bi         5.262            3.890   1067.76 147315.96
         Bi         5.288            3.890   1067.76 147315.96
         Bi         5.262            3.890   1067.76 147315.96
         Bi         5.288            3.890   1067.76 147315.96
         Te         3.319            3.676    837.16  84978.06
         Te         3.337            3.676    837.16  84978.06
         Te         3.319            3.676    837.16  84978.06
         Te         3.337            3.676    837.16  84978.06
         Te         4.259            3.676    837.16  84978.05
         Te         4.216            3.676    837.16  84978.05
         Te         4.259            3.676    837.16  84978.05
         Te         4.216            3.676    837.16  84978.05

         Molecular C6 ( Ry / a.u.^6 ) =    164642.77


   Crystallographic axes

     site n.     atom                  positions (cryst. coord.)
         1           Mn1 tau(   1) = (  0.0000000  0.0000000  0.0000000  )
         2           Mn2 tau(   2) = (  0.4999980  0.5000035  0.4999980  )
         3           Bi  tau(   3) = (  0.2125713  0.2125737  0.2125713  )
         4           Bi  tau(   4) = (  0.7123250  0.7123328  0.7123250  )
         5           Bi  tau(   5) = (  0.2874267  0.2874298  0.2874267  )
         6           Bi  tau(   6) = (  0.7876691  0.7876777  0.7876691  )
         7           Te  tau(   7) = (  0.0666798  0.0666805  0.0666798  )
         8           Te  tau(   8) = (  0.5666778  0.5666840  0.5666778  )
         9           Te  tau(   9) = (  0.4333183  0.4333230  0.4333183  )
        10           Te  tau(  10) = (  0.9333163  0.9333266  0.9333163  )
        11           Te  tau(  11) = (  0.1470294  0.1470310  0.1470294  )
        12           Te  tau(  12) = (  0.6470274  0.6470345  0.6470274  )
        13           Te  tau(  13) = (  0.3529686  0.3529725  0.3529686  )
        14           Te  tau(  14) = (  0.8529666  0.8529760  0.8529666  )

     number of k points=    36  Marzari-Vanderbilt smearing, width (Ry)=  0.0100
                       cart. coord. in units 2pi/alat
        k(    1) = (   0.0000000   0.0000000   0.0000000), wk =   0.0156250
        k(    2) = (  -1.5805784  -0.9125490   0.0836827), wk =   0.0312500
        k(    3) = (   3.1611569   1.8250979  -0.1673654), wk =   0.0312500
        k(    4) = (   0.0000000   1.8250979   0.0836836), wk =   0.0312500
        k(    5) = (  -1.5805784   0.9125490   0.1673663), wk =   0.0312500
        k(    6) = (   3.1611569   3.6501959  -0.0836818), wk =   0.0312500
        k(    7) = (   1.5805784   2.7376469   0.0000009), wk =   0.0312500
        k(    8) = (   0.0000000  -3.6501959  -0.1673672), wk =   0.0156250
        k(    9) = (  -1.5805784  -4.5627449  -0.0836845), wk =   0.0312500
        k(   10) = (   3.1611569  -1.8250979  -0.3347326), wk =   0.0312500
        k(   11) = (   0.0000000  -1.8250979   0.1673654), wk =   0.0312500
        k(   12) = (   4.7417353   0.9125490  -0.0836827), wk =   0.0312500
        k(   13) = (   3.1611569   0.0000000   0.0000000), wk =   0.0156250
        k(   14) = (   0.0000000   0.0000000   0.2510490), wk =   0.0312500
        k(   15) = (   4.7417353   2.7376469   0.0000009), wk =   0.0312500
        k(   16) = (   3.1611569   1.8250979   0.0836836), wk =   0.0312500
        k(   17) = (   0.0000000  -5.4752938  -0.0000018), wk =   0.0312500
        k(   18) = (   4.7417353  -2.7376469  -0.2510499), wk =   0.0312500
        k(   19) = (   3.1611569  -3.6501959  -0.1673672), wk =   0.0156250
        k(   20) = (   0.0000000  -3.6501959   0.0836818), wk =   0.0312500
        k(   21) = (   4.7417353  -0.9125490  -0.1673663), wk =   0.0312500
        k(   22) = (   0.0000000   3.6501959  -0.3347307), wk =   0.0156250
        k(   23) = (   0.0000000   5.4752938  -0.2510471), wk =   0.0312500
        k(   24) = (   0.0000000   0.0000000  -0.5020979), wk =   0.0156250
        k(   25) = (   1.5805784  -0.9125490   0.0836827), wk =   0.0312500
        k(   26) = (   1.5805784   0.9125490   0.1673663), wk =   0.0312500
        k(   27) = (  -3.1611569   3.6501959  -0.0836818), wk =   0.0312500
        k(   28) = (  -1.5805784   2.7376469   0.0000009), wk =   0.0312500
        k(   29) = (   1.5805784  -4.5627449  -0.0836845), wk =   0.0312500
        k(   30) = (  -4.7417353   0.9125490  -0.0836827), wk =   0.0312500
        k(   31) = (  -3.1611569   0.0000000   0.0000000), wk =   0.0156250
        k(   32) = (  -4.7417353   2.7376469   0.0000009), wk =   0.0312500
        k(   33) = (  -3.1611569   1.8250979   0.0836836), wk =   0.0312500
        k(   34) = (  -4.7417353  -2.7376469  -0.2510499), wk =   0.0312500
        k(   35) = (  -3.1611569  -3.6501959  -0.1673672), wk =   0.0156250
        k(   36) = (  -4.7417353  -0.9125490  -0.1673663), wk =   0.0312500

                       cryst. coord.
        k(    1) = (   0.0000000   0.0000000   0.0000000), wk =   0.0156250
        k(    2) = (   0.0000000   0.0000000   0.2500000), wk =   0.0312500
        k(    3) = (  -0.0000000   0.0000000  -0.5000000), wk =   0.0312500
        k(    4) = (   0.0000000   0.2500000   0.0000000), wk =   0.0312500
        k(    5) = (   0.0000000   0.2500000   0.2500000), wk =   0.0312500
        k(    6) = (  -0.0000000   0.2500000  -0.5000000), wk =   0.0312500
        k(    7) = (  -0.0000000   0.2500000  -0.2500000), wk =   0.0312500
        k(    8) = (   0.0000000  -0.5000000   0.0000000), wk =   0.0156250
        k(    9) = (   0.0000000  -0.5000000   0.2500000), wk =   0.0312500
        k(   10) = (  -0.0000000  -0.5000000  -0.5000000), wk =   0.0312500
        k(   11) = (   0.2500000   0.0000000   0.2500000), wk =   0.0312500
        k(   12) = (   0.2500000   0.0000000  -0.5000000), wk =   0.0312500
        k(   13) = (   0.2500000   0.0000000  -0.2500000), wk =   0.0156250
        k(   14) = (   0.2500000   0.2500000   0.2500000), wk =   0.0312500
        k(   15) = (   0.2500000   0.2500000  -0.5000000), wk =   0.0312500
        k(   16) = (   0.2500000   0.2500000  -0.2500000), wk =   0.0312500
        k(   17) = (   0.2500000  -0.5000000   0.2500000), wk =   0.0312500
        k(   18) = (   0.2500000  -0.5000000  -0.5000000), wk =   0.0312500
        k(   19) = (   0.2500000  -0.5000000  -0.2500000), wk =   0.0156250
        k(   20) = (   0.2500000  -0.2500000   0.2500000), wk =   0.0312500
        k(   21) = (   0.2500000  -0.2500000  -0.5000000), wk =   0.0312500
        k(   22) = (  -0.5000000   0.0000000  -0.5000000), wk =   0.0156250
        k(   23) = (  -0.5000000   0.2500000  -0.5000000), wk =   0.0312500
        k(   24) = (  -0.5000000  -0.5000000  -0.5000000), wk =   0.0156250
        k(   25) = (   0.2500000   0.0000000   0.0000000), wk =   0.0312500
        k(   26) = (   0.2500000   0.2500000   0.0000000), wk =   0.0312500
        k(   27) = (  -0.5000000   0.2500000  -0.0000000), wk =   0.0312500
        k(   28) = (  -0.2500000   0.2500000  -0.0000000), wk =   0.0312500
        k(   29) = (   0.2500000  -0.5000000   0.0000000), wk =   0.0312500
        k(   30) = (  -0.5000000  -0.0000000   0.2500000), wk =   0.0312500
        k(   31) = (  -0.2500000   0.0000000   0.2500000), wk =   0.0156250
        k(   32) = (  -0.5000000   0.2500000   0.2500000), wk =   0.0312500
        k(   33) = (  -0.2500000   0.2500000   0.2500000), wk =   0.0312500
        k(   34) = (  -0.5000000  -0.5000000   0.2500000), wk =   0.0312500
        k(   35) = (  -0.2500000  -0.5000000   0.2500000), wk =   0.0156250
        k(   36) = (  -0.5000000  -0.2500000   0.2500000), wk =   0.0312500

     Dense  grid:   564899 G-vectors     FFT dimensions: ( 375, 375, 375)

     Smooth grid:   187971 G-vectors     FFT dimensions: ( 256, 256, 256)

     Dynamical RAM for                 wfc:       2.48 MB

     Dynamical RAM for     wfc (w. buffer):      91.66 MB

     Dynamical RAM for           str. fact:       0.72 MB

     Dynamical RAM for           local pot:       0.00 MB

     Dynamical RAM for          nlocal pot:       3.55 MB

     Dynamical RAM for                qrad:      18.80 MB

     Dynamical RAM for          rho,v,vnew:     105.15 MB

     Dynamical RAM for               rhoin:      35.05 MB

     Dynamical RAM for            rho*nmix:      11.49 MB

     Dynamical RAM for           G-vectors:       0.70 MB

     Dynamical RAM for          h,s,v(r/c):       1.26 MB

     Dynamical RAM for          <psi|beta>:       2.41 MB

     Dynamical RAM for                 psi:       4.95 MB

     Dynamical RAM for                hpsi:       4.95 MB

     Dynamical RAM for                spsi:       4.95 MB

     Dynamical RAM for      wfcinit/wfcrot:       4.35 MB

     Dynamical RAM for           addusdens:     111.52 MB

     Dynamical RAM for          addusforce:     114.29 MB

     Estimated static dynamical RAM per process >     325.19 MB

     Estimated max dynamical RAM per process >     450.98 MB

     Estimated total dynamical RAM >      21.14 GB

     Atomic positions and unit cell read from directory:
     ./tmp/MnBi2Te4.save/
 
     Generating pointlists ...
     new r_m :   0.0448 (alat units)  2.3181 (a.u.) for type    1
     new r_m :   0.0448 (alat units)  2.3181 (a.u.) for type    2
     new r_m :   0.0455 (alat units)  2.3581 (a.u.) for type    3
     new r_m :   0.0448 (alat units)  2.3181 (a.u.) for type    4

     The initial density is read from file :
     ./tmp/MnBi2Te4.save/charge-density


 ==============================================================================
     atom number    1 relative position :    0.0000   0.0000   0.0000
     charge :    13.666129  (integrated on a sphere of radius 0.045)
     magnetization :          0.000000    0.000083    4.328752
     magnetization/charge:    0.000000    0.000006    0.316750
     polar coord.: r, theta, phi [deg] :     4.328752    0.001097   90.000000

 ==============================================================================

 ==============================================================================
     atom number    2 relative position :    0.0000   0.0000   1.4937
     charge :    13.666141  (integrated on a sphere of radius 0.045)
     magnetization :          0.000000    0.000003   -4.328852
     magnetization/charge:    0.000000    0.000000   -0.316757
     polar coord.: r, theta, phi [deg] :     4.328852  179.999964   90.000000

 ==============================================================================

 ==============================================================================
     atom number    3 relative position :    0.0000   0.0000   0.6351
     charge :    12.628563  (integrated on a sphere of radius 0.046)
     magnetization :          0.000000   -0.000003   -0.022331
     magnetization/charge:    0.000000   -0.000000   -0.001768
     polar coord.: r, theta, phi [deg] :     0.022331  179.991925  -90.000000

 ==============================================================================

 ==============================================================================
     atom number    4 relative position :    0.0000   0.0000   2.1281
     charge :    12.625794  (integrated on a sphere of radius 0.046)
     magnetization :          0.000000   -0.000015    0.022481
     magnetization/charge:    0.000000   -0.000001    0.001781
     polar coord.: r, theta, phi [deg] :     0.022481    0.038166  -90.000000

 ==============================================================================

 ==============================================================================
     atom number    5 relative position :    0.0000   0.0000   0.8587
     charge :    12.628499  (integrated on a sphere of radius 0.046)
     magnetization :          0.000000    0.000016    0.022294
     magnetization/charge:    0.000000    0.000001    0.001765
     polar coord.: r, theta, phi [deg] :     0.022294    0.041912   90.000000

 ==============================================================================

 ==============================================================================
     atom number    6 relative position :    0.0000   0.0000   2.3531
     charge :    12.625873  (integrated on a sphere of radius 0.046)
     magnetization :         -0.000000   -0.000031   -0.022485
     magnetization/charge:   -0.000000   -0.000002   -0.001781
     polar coord.: r, theta, phi [deg] :     0.022485  179.920433  -90.000000

 ==============================================================================

 ==============================================================================
     atom number    7 relative position :    0.0000   0.0000   0.1992
     charge :     3.793283  (integrated on a sphere of radius 0.045)
     magnetization :          0.000000   -0.000016    0.051615
     magnetization/charge:    0.000000   -0.000004    0.013607
     polar coord.: r, theta, phi [deg] :     0.051615    0.017841  -90.000000

 ==============================================================================

 ==============================================================================
     atom number    8 relative position :    0.0000   0.0000   1.6929
     charge :     3.799041  (integrated on a sphere of radius 0.045)
     magnetization :         -0.000000    0.000021   -0.050619
     magnetization/charge:   -0.000000    0.000006   -0.013324
     polar coord.: r, theta, phi [deg] :     0.050619  179.975766   90.000000

 ==============================================================================

 ==============================================================================
     atom number    9 relative position :    0.0000   0.0000   1.2945
     charge :     3.793459  (integrated on a sphere of radius 0.045)
     magnetization :          0.000000   -0.000023   -0.051637
     magnetization/charge:    0.000000   -0.000006   -0.013612
     polar coord.: r, theta, phi [deg] :     0.051637  179.974529  -90.000000

 ==============================================================================

 ==============================================================================
     atom number   10 relative position :    0.0000   0.0000   2.7883
     charge :     3.798871  (integrated on a sphere of radius 0.045)
     magnetization :         -0.000000    0.000008    0.050584
     magnetization/charge:   -0.000000    0.000002    0.013316
     polar coord.: r, theta, phi [deg] :     0.050584    0.008593   90.000000

 ==============================================================================

 ==============================================================================
     atom number   11 relative position :    0.0000   0.0000   0.4392
     charge :     3.842913  (integrated on a sphere of radius 0.045)
     magnetization :          0.000000    0.000008   -0.012934
     magnetization/charge:    0.000000    0.000002   -0.003366
     polar coord.: r, theta, phi [deg] :     0.012934  179.964119   90.000000

 ==============================================================================

 ==============================================================================
     atom number   12 relative position :    0.0000   0.0000   1.9330
     charge :     3.840561  (integrated on a sphere of radius 0.045)
     magnetization :          0.000000    0.000009    0.012941
     magnetization/charge:    0.000000    0.000002    0.003369
     polar coord.: r, theta, phi [deg] :     0.012941    0.040305   90.000000

 ==============================================================================

 ==============================================================================
     atom number   13 relative position :    0.0000   0.0000   1.0545
     charge :     3.842817  (integrated on a sphere of radius 0.045)
     magnetization :          0.000000   -0.000018    0.013100
     magnetization/charge:    0.000000   -0.000005    0.003409
     polar coord.: r, theta, phi [deg] :     0.013100    0.080478  -90.000000

 ==============================================================================

 ==============================================================================
     atom number   14 relative position :    0.0000   0.0000   2.5482
     charge :     3.840669  (integrated on a sphere of radius 0.045)
     magnetization :          0.000000    0.000005   -0.012770
     magnetization/charge:    0.000000    0.000001   -0.003325
     polar coord.: r, theta, phi [deg] :     0.012770  179.976176   90.000000

 ==============================================================================
     Starting wfcs from file
     Checking if some PAW data can be deallocated... 
       PAW data deallocated on   44 nodes for type:  1
       PAW data deallocated on   44 nodes for type:  2
       PAW data deallocated on   32 nodes for type:  3
       PAW data deallocated on   24 nodes for type:  4

     total cpu time spent up to now is       39.4 secs

     Self-consistent Calculation

     iteration #  1     ecut=    60.00 Ry     beta= 0.30
     Davidson diagonalization with overlap

---- Real-time Memory Report at c_bands before calling an iterative solver
           552 MiB given to the printing process from OS
             0 MiB allocation reported by mallinfo(arena+hblkhd)
        222328 MiB available memory on the node where the printing process lives
------------------
     ethr =  1.00E-05,  avg # of iterations =  2.0

 ==============================================================================
     atom number    1 relative position :    0.0000   0.0000   0.0000
     charge :    13.665950  (integrated on a sphere of radius 0.045)
     magnetization :          0.000000    0.000084    4.329027
     magnetization/charge:    0.000000    0.000006    0.316775
     polar coord.: r, theta, phi [deg] :     4.329027    0.001116   90.000000

 ==============================================================================

 ==============================================================================
     atom number    2 relative position :    0.0000   0.0000   1.4937
     charge :    13.665984  (integrated on a sphere of radius 0.045)
     magnetization :         -0.000000    0.000004   -4.329126
     magnetization/charge:   -0.000000    0.000000   -0.316781
     polar coord.: r, theta, phi [deg] :     4.329126  179.999944   90.000000

 ==============================================================================

 ==============================================================================
     atom number    3 relative position :    0.0000   0.0000   0.6351
     charge :    12.628508  (integrated on a sphere of radius 0.046)
     magnetization :         -0.000000   -0.000002   -0.022381
     magnetization/charge:   -0.000000   -0.000000   -0.001772
     polar coord.: r, theta, phi [deg] :     0.022381  179.994200  -90.000000

 ==============================================================================

 ==============================================================================
     atom number    4 relative position :    0.0000   0.0000   2.1281
     charge :    12.625735  (integrated on a sphere of radius 0.046)
     magnetization :         -0.000000   -0.000020    0.022459
     magnetization/charge:   -0.000000   -0.000002    0.001779
     polar coord.: r, theta, phi [deg] :     0.022459    0.049768  -90.000000

 ==============================================================================

 ==============================================================================
     atom number    5 relative position :    0.0000   0.0000   0.8587
     charge :    12.628424  (integrated on a sphere of radius 0.046)
     magnetization :         -0.000000    0.000019    0.022364
     magnetization/charge:   -0.000000    0.000001    0.001771
     polar coord.: r, theta, phi [deg] :     0.022364    0.047750   90.000000

 ==============================================================================

 ==============================================================================
     atom number    6 relative position :    0.0000   0.0000   2.3531
     charge :    12.625832  (integrated on a sphere of radius 0.046)
     magnetization :          0.000000   -0.000026   -0.022437
     magnetization/charge:    0.000000   -0.000002   -0.001777
     polar coord.: r, theta, phi [deg] :     0.022437  179.934264  -90.000000

 ==============================================================================

 ==============================================================================
     atom number    7 relative position :    0.0000   0.0000   0.1992
     charge :     3.793224  (integrated on a sphere of radius 0.045)
     magnetization :         -0.000000   -0.000022    0.051562
     magnetization/charge:   -0.000000   -0.000006    0.013593
     polar coord.: r, theta, phi [deg] :     0.051562    0.024683  -90.000000

 ==============================================================================

 ==============================================================================
     atom number    8 relative position :    0.0000   0.0000   1.6929
     charge :     3.799565  (integrated on a sphere of radius 0.045)
     magnetization :         -0.000000    0.000024   -0.050735
     magnetization/charge:   -0.000000    0.000006   -0.013353
     polar coord.: r, theta, phi [deg] :     0.050735  179.972361   90.000000

 ==============================================================================

 ==============================================================================
     atom number    9 relative position :    0.0000   0.0000   1.2945
     charge :     3.793343  (integrated on a sphere of radius 0.045)
     magnetization :          0.000000   -0.000032   -0.051597
     magnetization/charge:    0.000000   -0.000008   -0.013602
     polar coord.: r, theta, phi [deg] :     0.051597  179.964579  -90.000000

 ==============================================================================

 ==============================================================================
     atom number   10 relative position :    0.0000   0.0000   2.7883
     charge :     3.799448  (integrated on a sphere of radius 0.045)
     magnetization :          0.000000    0.000009    0.050692
     magnetization/charge:    0.000000    0.000002    0.013342
     polar coord.: r, theta, phi [deg] :     0.050692    0.010688   90.000000

 ==============================================================================

 ==============================================================================
     atom number   11 relative position :    0.0000   0.0000   0.4392
     charge :     3.842910  (integrated on a sphere of radius 0.045)
     magnetization :         -0.000000    0.000000   -0.012715
     magnetization/charge:   -0.000000    0.000000   -0.003309
     polar coord.: r, theta, phi [deg] :     0.012715  179.997848   90.000000

 ==============================================================================

 ==============================================================================
     atom number   12 relative position :    0.0000   0.0000   1.9330
     charge :     3.840420  (integrated on a sphere of radius 0.045)
     magnetization :          0.000000    0.000010    0.012332
     magnetization/charge:    0.000000    0.000003    0.003211
     polar coord.: r, theta, phi [deg] :     0.012332    0.046048   90.000000

 ==============================================================================

 ==============================================================================
     atom number   13 relative position :    0.0000   0.0000   1.0545
     charge :     3.842766  (integrated on a sphere of radius 0.045)
     magnetization :         -0.000000   -0.000019    0.012759
     magnetization/charge:   -0.000000   -0.000005    0.003320
     polar coord.: r, theta, phi [deg] :     0.012759    0.087414  -90.000000

 ==============================================================================

 ==============================================================================
     atom number   14 relative position :    0.0000   0.0000   2.5482
     charge :     3.840572  (integrated on a sphere of radius 0.045)
     magnetization :          0.000000    0.000006   -0.012258
     magnetization/charge:    0.000000    0.000002   -0.003192
     polar coord.: r, theta, phi [deg] :     0.012258  179.972928   90.000000

 ==============================================================================

     total cpu time spent up to now is     3089.1 secs

     total energy              =   -7140.71343591 Ry
     estimated scf accuracy    <       0.00150909 Ry

     total magnetization       =     0.00     0.00    -0.00 Bohr mag/cell
     absolute magnetization    =     9.94 Bohr mag/cell

     iteration #  2     ecut=    60.00 Ry     beta= 0.30
     Davidson diagonalization with overlap

---- Real-time Memory Report at c_bands before calling an iterative solver
           801 MiB given to the printing process from OS
             0 MiB allocation reported by mallinfo(arena+hblkhd)
        219056 MiB available memory on the node where the printing process lives
------------------
     c_bands:  1 eigenvalues not converged
     c_bands:  2 eigenvalues not converged
     ethr =  1.09E-06,  avg # of iterations =  4.3

 ==============================================================================
     atom number    1 relative position :    0.0000   0.0000   0.0000
     charge :    13.665322  (integrated on a sphere of radius 0.045)
     magnetization :         -0.000000    0.000095    4.329193
     magnetization/charge:   -0.000000    0.000007    0.316801
     polar coord.: r, theta, phi [deg] :     4.329193    0.001254   90.000000

 ==============================================================================

 ==============================================================================
     atom number    2 relative position :    0.0000   0.0000   1.4937
     charge :    13.665424  (integrated on a sphere of radius 0.045)
     magnetization :          0.000000    0.000010   -4.329435
     magnetization/charge:    0.000000    0.000001   -0.316817
     polar coord.: r, theta, phi [deg] :     4.329435  179.999864   90.000000

 ==============================================================================

 ==============================================================================
     atom number    3 relative position :    0.0000   0.0000   0.6351
     charge :    12.628388  (integrated on a sphere of radius 0.046)
     magnetization :          0.000000    0.000007   -0.022421
     magnetization/charge:    0.000000    0.000001   -0.001775
     polar coord.: r, theta, phi [deg] :     0.022421  179.982321   90.000000

 ==============================================================================

 ==============================================================================
     atom number    4 relative position :    0.0000   0.0000   2.1281
     charge :    12.625460  (integrated on a sphere of radius 0.046)
     magnetization :          0.000000   -0.000050    0.022274
     magnetization/charge:    0.000000   -0.000004    0.001764
     polar coord.: r, theta, phi [deg] :     0.022274    0.127855  -90.000000

 ==============================================================================

 ==============================================================================
     atom number    5 relative position :    0.0000   0.0000   0.8587
     charge :    12.628235  (integrated on a sphere of radius 0.046)
     magnetization :         -0.000000    0.000004    0.022437
     magnetization/charge:   -0.000000    0.000000    0.001777
     polar coord.: r, theta, phi [deg] :     0.022437    0.010070   90.000000

 ==============================================================================

 ==============================================================================
     atom number    6 relative position :    0.0000   0.0000   2.3531
     charge :    12.625620  (integrated on a sphere of radius 0.046)
     magnetization :          0.000000   -0.000031   -0.022140
     magnetization/charge:    0.000000   -0.000002   -0.001754
     polar coord.: r, theta, phi [deg] :     0.022140  179.920460  -90.000000

 ==============================================================================

 ==============================================================================
     atom number    7 relative position :    0.0000   0.0000   0.1992
     charge :     3.792946  (integrated on a sphere of radius 0.045)
     magnetization :          0.000000   -0.000066    0.051647
     magnetization/charge:    0.000000   -0.000017    0.013616
     polar coord.: r, theta, phi [deg] :     0.051647    0.073093  -90.000000

 ==============================================================================

 ==============================================================================
     atom number    8 relative position :    0.0000   0.0000   1.6929
     charge :     3.801286  (integrated on a sphere of radius 0.045)
     magnetization :          0.000000    0.000043   -0.051349
     magnetization/charge:    0.000000    0.000011   -0.013508
     polar coord.: r, theta, phi [deg] :     0.051349  179.952495   90.000000

 ==============================================================================

 ==============================================================================
     atom number    9 relative position :    0.0000   0.0000   1.2945
     charge :     3.792886  (integrated on a sphere of radius 0.045)
     magnetization :         -0.000000   -0.000075   -0.051718
     magnetization/charge:   -0.000000   -0.000020   -0.013635
     polar coord.: r, theta, phi [deg] :     0.051718  179.916896  -90.000000

 ==============================================================================

 ==============================================================================
     atom number   10 relative position :    0.0000   0.0000   2.7883
     charge :     3.801334  (integrated on a sphere of radius 0.045)
     magnetization :         -0.000000    0.000031    0.051247
     magnetization/charge:   -0.000000    0.000008    0.013481
     polar coord.: r, theta, phi [deg] :     0.051247    0.034194   90.000000

 ==============================================================================

 ==============================================================================
     atom number   11 relative position :    0.0000   0.0000   0.4392
     charge :     3.842857  (integrated on a sphere of radius 0.045)
     magnetization :          0.000000   -0.000046   -0.012231
     magnetization/charge:    0.000000   -0.000012   -0.003183
     polar coord.: r, theta, phi [deg] :     0.012231  179.784181  -90.000000

 ==============================================================================

 ==============================================================================
     atom number   12 relative position :    0.0000   0.0000   1.9330
     charge :     3.839997  (integrated on a sphere of radius 0.045)
     magnetization :         -0.000000    0.000020    0.010765
     magnetization/charge:   -0.000000    0.000005    0.002803
     polar coord.: r, theta, phi [deg] :     0.010765    0.105177   90.000000

 ==============================================================================

 ==============================================================================
     atom number   13 relative position :    0.0000   0.0000   1.0545
     charge :     3.842536  (integrated on a sphere of radius 0.045)
     magnetization :          0.000000   -0.000032    0.011948
     magnetization/charge:    0.000000   -0.000008    0.003109
     polar coord.: r, theta, phi [deg] :     0.011948    0.151737  -90.000000

 ==============================================================================

 ==============================================================================
     atom number   14 relative position :    0.0000   0.0000   2.5482
     charge :     3.840316  (integrated on a sphere of radius 0.045)
     magnetization :          0.000000    0.000018   -0.010739
     magnetization/charge:    0.000000    0.000005   -0.002796
     polar coord.: r, theta, phi [deg] :     0.010739  179.906181   90.000000

 ==============================================================================

     total cpu time spent up to now is     5513.8 secs

     total energy              =   -7140.71348300 Ry
     estimated scf accuracy    <       0.00104167 Ry

     total magnetization       =     0.00     0.00    -0.00 Bohr mag/cell
     absolute magnetization    =     9.95 Bohr mag/cell

     iteration #  3     ecut=    60.00 Ry     beta= 0.30
     Davidson diagonalization with overlap

---- Real-time Memory Report at c_bands before calling an iterative solver
           810 MiB given to the printing process from OS
             0 MiB allocation reported by mallinfo(arena+hblkhd)
        218881 MiB available memory on the node where the printing process lives
------------------
     ethr =  7.55E-07,  avg # of iterations =  9.2

 ==============================================================================
     atom number    1 relative position :    0.0000   0.0000   0.0000
     charge :    13.665485  (integrated on a sphere of radius 0.045)
     magnetization :         -0.000000    0.000102    4.328567
     magnetization/charge:   -0.000000    0.000007    0.316752
     polar coord.: r, theta, phi [deg] :     4.328567    0.001355   90.000000

 ==============================================================================

 ==============================================================================
     atom number    2 relative position :    0.0000   0.0000   1.4937
     charge :    13.665554  (integrated on a sphere of radius 0.045)
     magnetization :          0.000000    0.000021   -4.328896
     magnetization/charge:    0.000000    0.000002   -0.316774
     polar coord.: r, theta, phi [deg] :     4.328896  179.999726   90.000000

 ==============================================================================

 ==============================================================================
     atom number    3 relative position :    0.0000   0.0000   0.6351
     charge :    12.628498  (integrated on a sphere of radius 0.046)
     magnetization :         -0.000000    0.000028   -0.022153
     magnetization/charge:   -0.000000    0.000002   -0.001754
     polar coord.: r, theta, phi [deg] :     0.022153  179.928250   90.000000

 ==============================================================================

 ==============================================================================
     atom number    4 relative position :    0.0000   0.0000   2.1281
     charge :    12.625496  (integrated on a sphere of radius 0.046)
     magnetization :         -0.000000   -0.000089    0.022103
     magnetization/charge:   -0.000000   -0.000007    0.001751
     polar coord.: r, theta, phi [deg] :     0.022103    0.231122  -90.000000

 ==============================================================================

 ==============================================================================
     atom number    5 relative position :    0.0000   0.0000   0.8587
     charge :    12.628364  (integrated on a sphere of radius 0.046)
     magnetization :          0.000000    0.000041    0.022144
     magnetization/charge:    0.000000    0.000003    0.001754
     polar coord.: r, theta, phi [deg] :     0.022144    0.105928   90.000000

 ==============================================================================

 ==============================================================================
     atom number    6 relative position :    0.0000   0.0000   2.3531
     charge :    12.625635  (integrated on a sphere of radius 0.046)
     magnetization :         -0.000000   -0.000126   -0.021999
     magnetization/charge:   -0.000000   -0.000010   -0.001742
     polar coord.: r, theta, phi [deg] :     0.021999  179.671043  -90.000000

 ==============================================================================

 ==============================================================================
     atom number    7 relative position :    0.0000   0.0000   0.1992
     charge :     3.792959  (integrated on a sphere of radius 0.045)
     magnetization :         -0.000000   -0.000131    0.051968
     magnetization/charge:   -0.000000   -0.000034    0.013701
     polar coord.: r, theta, phi [deg] :     0.051968    0.144165  -90.000000

 ==============================================================================

 ==============================================================================
     atom number    8 relative position :    0.0000   0.0000   1.6929
     charge :     3.800557  (integrated on a sphere of radius 0.045)
     magnetization :         -0.000000    0.000079   -0.051474
     magnetization/charge:   -0.000000    0.000021   -0.013544
     polar coord.: r, theta, phi [deg] :     0.051474  179.911993   90.000000

 ==============================================================================

 ==============================================================================
     atom number    9 relative position :    0.0000   0.0000   1.2945
     charge :     3.792970  (integrated on a sphere of radius 0.045)
     magnetization :         -0.000000   -0.000131   -0.052043
     magnetization/charge:   -0.000000   -0.000035   -0.013721
     polar coord.: r, theta, phi [deg] :     0.052044  179.855412  -90.000000

 ==============================================================================

 ==============================================================================
     atom number   10 relative position :    0.0000   0.0000   2.7883
     charge :     3.800535  (integrated on a sphere of radius 0.045)
     magnetization :         -0.000000    0.000061    0.051380
     magnetization/charge:   -0.000000    0.000016    0.013519
     polar coord.: r, theta, phi [deg] :     0.051380    0.068495   90.000000

 ==============================================================================

 ==============================================================================
     atom number   11 relative position :    0.0000   0.0000   0.4392
     charge :     3.842833  (integrated on a sphere of radius 0.045)
     magnetization :         -0.000000   -0.000072   -0.012545
     magnetization/charge:   -0.000000   -0.000019   -0.003265
     polar coord.: r, theta, phi [deg] :     0.012545  179.672648  -90.000000

 ==============================================================================

 ==============================================================================
     atom number   12 relative position :    0.0000   0.0000   1.9330
     charge :     3.840190  (integrated on a sphere of radius 0.045)
     magnetization :         -0.000000    0.000028    0.011596
     magnetization/charge:   -0.000000    0.000007    0.003020
     polar coord.: r, theta, phi [deg] :     0.011596    0.139137   90.000000

 ==============================================================================

 ==============================================================================
     atom number   13 relative position :    0.0000   0.0000   1.0545
     charge :     3.842555  (integrated on a sphere of radius 0.045)
     magnetization :          0.000000   -0.000061    0.012461
     magnetization/charge:    0.000000   -0.000016    0.003243
     polar coord.: r, theta, phi [deg] :     0.012461    0.280604  -90.000000

 ==============================================================================

 ==============================================================================
     atom number   14 relative position :    0.0000   0.0000   2.5482
     charge :     3.840475  (integrated on a sphere of radius 0.045)
     magnetization :         -0.000000    0.000019   -0.011271
     magnetization/charge:   -0.000000    0.000005   -0.002935
     polar coord.: r, theta, phi [deg] :     0.011271  179.905510   90.000000

 ==============================================================================

     total cpu time spent up to now is     8770.7 secs

     total energy              =   -7140.71446795 Ry
     estimated scf accuracy    <       0.00011373 Ry

     total magnetization       =     0.00     0.00    -0.00 Bohr mag/cell
     absolute magnetization    =    10.06 Bohr mag/cell

     iteration #  4     ecut=    60.00 Ry     beta= 0.30
     Davidson diagonalization with overlap

---- Real-time Memory Report at c_bands before calling an iterative solver
           825 MiB given to the printing process from OS
             0 MiB allocation reported by mallinfo(arena+hblkhd)
        218585 MiB available memory on the node where the printing process lives
------------------
     ethr =  8.24E-08,  avg # of iterations = 11.6

 ==============================================================================
     atom number    1 relative position :    0.0000   0.0000   0.0000
     charge :    13.665486  (integrated on a sphere of radius 0.045)
     magnetization :          0.000000    0.000100    4.328559
     magnetization/charge:    0.000000    0.000007    0.316751
     polar coord.: r, theta, phi [deg] :     4.328559    0.001328   90.000000

 ==============================================================================

 ==============================================================================
     atom number    2 relative position :    0.0000   0.0000   1.4937
     charge :    13.665557  (integrated on a sphere of radius 0.045)
     magnetization :          0.000000    0.000019   -4.328882
     magnetization/charge:    0.000000    0.000001   -0.316773
     polar coord.: r, theta, phi [deg] :     4.328882  179.999747   90.000000

 ==============================================================================

 ==============================================================================
     atom number    3 relative position :    0.0000   0.0000   0.6351
     charge :    12.628495  (integrated on a sphere of radius 0.046)
     magnetization :          0.000000    0.000024   -0.022167
     magnetization/charge:    0.000000    0.000002   -0.001755
     polar coord.: r, theta, phi [deg] :     0.022167  179.937756   90.000000

 ==============================================================================

 ==============================================================================
     atom number    4 relative position :    0.0000   0.0000   2.1281
     charge :    12.625497  (integrated on a sphere of radius 0.046)
     magnetization :         -0.000000   -0.000082    0.022117
     magnetization/charge:   -0.000000   -0.000006    0.001752
     polar coord.: r, theta, phi [deg] :     0.022118    0.211364  -90.000000

 ==============================================================================

 ==============================================================================
     atom number    5 relative position :    0.0000   0.0000   0.8587
     charge :    12.628362  (integrated on a sphere of radius 0.046)
     magnetization :          0.000000    0.000037    0.022160
     magnetization/charge:    0.000000    0.000003    0.001755
     polar coord.: r, theta, phi [deg] :     0.022160    0.096866   90.000000

 ==============================================================================

 ==============================================================================
     atom number    6 relative position :    0.0000   0.0000   2.3531
     charge :    12.625636  (integrated on a sphere of radius 0.046)
     magnetization :          0.000000   -0.000115   -0.022011
     magnetization/charge:    0.000000   -0.000009   -0.001743
     polar coord.: r, theta, phi [deg] :     0.022011  179.701070  -90.000000

 ==============================================================================

 ==============================================================================
     atom number    7 relative position :    0.0000   0.0000   0.1992
     charge :     3.792961  (integrated on a sphere of radius 0.045)
     magnetization :         -0.000000   -0.000118    0.051950
     magnetization/charge:   -0.000000   -0.000031    0.013696
     polar coord.: r, theta, phi [deg] :     0.051950    0.129800  -90.000000

 ==============================================================================

 ==============================================================================
     atom number    8 relative position :    0.0000   0.0000   1.6929
     charge :     3.800572  (integrated on a sphere of radius 0.045)
     magnetization :          0.000000    0.000072   -0.051460
     magnetization/charge:    0.000000    0.000019   -0.013540
     polar coord.: r, theta, phi [deg] :     0.051460  179.919419   90.000000

 ==============================================================================

 ==============================================================================
     atom number    9 relative position :    0.0000   0.0000   1.2945
     charge :     3.792971  (integrated on a sphere of radius 0.045)
     magnetization :         -0.000000   -0.000120   -0.052022
     magnetization/charge:   -0.000000   -0.000032   -0.013715
     polar coord.: r, theta, phi [deg] :     0.052022  179.867932  -90.000000

 ==============================================================================

 ==============================================================================
     atom number   10 relative position :    0.0000   0.0000   2.7883
     charge :     3.800552  (integrated on a sphere of radius 0.045)
     magnetization :         -0.000000    0.000054    0.051366
     magnetization/charge:   -0.000000    0.000014    0.013515
     polar coord.: r, theta, phi [deg] :     0.051366    0.060705   90.000000

 ==============================================================================

 ==============================================================================
     atom number   11 relative position :    0.0000   0.0000   0.4392
     charge :     3.842834  (integrated on a sphere of radius 0.045)
     magnetization :          0.000000   -0.000066   -0.012557
     magnetization/charge:    0.000000   -0.000017   -0.003268
     polar coord.: r, theta, phi [deg] :     0.012557  179.697040  -90.000000

 ==============================================================================

 ==============================================================================
     atom number   12 relative position :    0.0000   0.0000   1.9330
     charge :     3.840183  (integrated on a sphere of radius 0.045)
     magnetization :          0.000000    0.000026    0.011598
     magnetization/charge:    0.000000    0.000007    0.003020
     polar coord.: r, theta, phi [deg] :     0.011598    0.129889   90.000000

 ==============================================================================

 ==============================================================================
     atom number   13 relative position :    0.0000   0.0000   1.0545
     charge :     3.842555  (integrated on a sphere of radius 0.045)
     magnetization :         -0.000000   -0.000057    0.012466
     magnetization/charge:   -0.000000   -0.000015    0.003244
     polar coord.: r, theta, phi [deg] :     0.012466    0.263661  -90.000000

 ==============================================================================

 ==============================================================================
     atom number   14 relative position :    0.0000   0.0000   2.5482
     charge :     3.840466  (integrated on a sphere of radius 0.045)
     magnetization :          0.000000    0.000017   -0.011287
     magnetization/charge:    0.000000    0.000004   -0.002939
     polar coord.: r, theta, phi [deg] :     0.011287  179.913657   90.000000

 ==============================================================================

     total cpu time spent up to now is    12676.4 secs

     total energy              =   -7140.71461275 Ry
     estimated scf accuracy    <       0.00015401 Ry

     total magnetization       =    -0.00     0.00    -0.00 Bohr mag/cell
     absolute magnetization    =    10.12 Bohr mag/cell

     iteration #  5     ecut=    60.00 Ry     beta= 0.30
     Davidson diagonalization with overlap

---- Real-time Memory Report at c_bands before calling an iterative solver
           851 MiB given to the printing process from OS
             0 MiB allocation reported by mallinfo(arena+hblkhd)
        217978 MiB available memory on the node where the printing process lives
------------------
     ethr =  8.24E-08,  avg # of iterations =  2.0

 ==============================================================================
     atom number    1 relative position :    0.0000   0.0000   0.0000
     charge :    13.665438  (integrated on a sphere of radius 0.045)
     magnetization :         -0.000000    0.000090    4.328620
     magnetization/charge:   -0.000000    0.000007    0.316757
     polar coord.: r, theta, phi [deg] :     4.328620    0.001197   90.000000

 ==============================================================================

 ==============================================================================
     atom number    2 relative position :    0.0000   0.0000   1.4937
     charge :    13.665520  (integrated on a sphere of radius 0.045)
     magnetization :          0.000000    0.000010   -4.328928
     magnetization/charge:    0.000000    0.000001   -0.316777
     polar coord.: r, theta, phi [deg] :     4.328928  179.999871   90.000000

 ==============================================================================

 ==============================================================================
     atom number    3 relative position :    0.0000   0.0000   0.6351
     charge :    12.628475  (integrated on a sphere of radius 0.046)
     magnetization :         -0.000000    0.000003   -0.022239
     magnetization/charge:   -0.000000    0.000000   -0.001761
     polar coord.: r, theta, phi [deg] :     0.022239  179.992537   90.000000

 ==============================================================================

 ==============================================================================
     atom number    4 relative position :    0.0000   0.0000   2.1281
     charge :    12.625479  (integrated on a sphere of radius 0.046)
     magnetization :          0.000000   -0.000034    0.022170
     magnetization/charge:    0.000000   -0.000003    0.001756
     polar coord.: r, theta, phi [deg] :     0.022170    0.087575  -90.000000

 ==============================================================================

 ==============================================================================
     atom number    5 relative position :    0.0000   0.0000   0.8587
     charge :    12.628340  (integrated on a sphere of radius 0.046)
     magnetization :          0.000000    0.000032    0.022218
     magnetization/charge:    0.000000    0.000003    0.001759
     polar coord.: r, theta, phi [deg] :     0.022218    0.083804   90.000000

 ==============================================================================

 ==============================================================================
     atom number    6 relative position :    0.0000   0.0000   2.3531
     charge :    12.625624  (integrated on a sphere of radius 0.046)
     magnetization :         -0.000000   -0.000111   -0.022031
     magnetization/charge:   -0.000000   -0.000009   -0.001745
     polar coord.: r, theta, phi [deg] :     0.022031  179.711173  -90.000000

 ==============================================================================

 ==============================================================================
     atom number    7 relative position :    0.0000   0.0000   0.1992
     charge :     3.792950  (integrated on a sphere of radius 0.045)
     magnetization :          0.000000   -0.000122    0.051875
     magnetization/charge:    0.000000   -0.000032    0.013677
     polar coord.: r, theta, phi [deg] :     0.051875    0.134878  -90.000000

 ==============================================================================

 ==============================================================================
     atom number    8 relative position :    0.0000   0.0000   1.6929
     charge :     3.800743  (integrated on a sphere of radius 0.045)
     magnetization :         -0.000000    0.000077   -0.051446
     magnetization/charge:   -0.000000    0.000020   -0.013536
     polar coord.: r, theta, phi [deg] :     0.051446  179.914643   90.000000

 ==============================================================================

 ==============================================================================
     atom number    9 relative position :    0.0000   0.0000   1.2945
     charge :     3.792940  (integrated on a sphere of radius 0.045)
     magnetization :          0.000000   -0.000122   -0.051936
     magnetization/charge:    0.000000   -0.000032   -0.013693
     polar coord.: r, theta, phi [deg] :     0.051936  179.865829  -90.000000

 ==============================================================================

 ==============================================================================
     atom number   10 relative position :    0.0000   0.0000   2.7883
     charge :     3.800739  (integrated on a sphere of radius 0.045)
     magnetization :         -0.000000    0.000054    0.051326
     magnetization/charge:   -0.000000    0.000014    0.013504
     polar coord.: r, theta, phi [deg] :     0.051326    0.060331   90.000000

 ==============================================================================

 ==============================================================================
     atom number   11 relative position :    0.0000   0.0000   0.4392
     charge :     3.842835  (integrated on a sphere of radius 0.045)
     magnetization :          0.000000   -0.000041   -0.012541
     magnetization/charge:    0.000000   -0.000011   -0.003264
     polar coord.: r, theta, phi [deg] :     0.012541  179.812737  -90.000000

 ==============================================================================

 ==============================================================================
     atom number   12 relative position :    0.0000   0.0000   1.9330
     charge :     3.840139  (integrated on a sphere of radius 0.045)
     magnetization :         -0.000000    0.000018    0.011465
     magnetization/charge:   -0.000000    0.000005    0.002986
     polar coord.: r, theta, phi [deg] :     0.011465    0.090490   90.000000

 ==============================================================================

 ==============================================================================
     atom number   13 relative position :    0.0000   0.0000   1.0545
     charge :     3.842540  (integrated on a sphere of radius 0.045)
     magnetization :          0.000000   -0.000046    0.012383
     magnetization/charge:    0.000000   -0.000012    0.003223
     polar coord.: r, theta, phi [deg] :     0.012383    0.210915  -90.000000

 ==============================================================================

 ==============================================================================
     atom number   14 relative position :    0.0000   0.0000   2.5482
     charge :     3.840424  (integrated on a sphere of radius 0.045)
     magnetization :         -0.000000    0.000025   -0.011212
     magnetization/charge:   -0.000000    0.000006   -0.002919
     polar coord.: r, theta, phi [deg] :     0.011212  179.874194   90.000000

 ==============================================================================

     total cpu time spent up to now is    15113.3 secs

     total energy              =   -7140.71419402 Ry
     estimated scf accuracy    <       0.00014628 Ry

     total magnetization       =    -0.00     0.00    -0.00 Bohr mag/cell
     absolute magnetization    =    10.12 Bohr mag/cell

     iteration #  6     ecut=    60.00 Ry     beta= 0.30
     Davidson diagonalization with overlap

---- Real-time Memory Report at c_bands before calling an iterative solver
           851 MiB given to the printing process from OS
             0 MiB allocation reported by mallinfo(arena+hblkhd)
        217929 MiB available memory on the node where the printing process lives
------------------
     ethr =  8.24E-08,  avg # of iterations =  3.2

 ==============================================================================
     atom number    1 relative position :    0.0000   0.0000   0.0000
     charge :    13.665573  (integrated on a sphere of radius 0.045)
     magnetization :         -0.000000    0.000080    4.328036
     magnetization/charge:   -0.000000    0.000006    0.316711
     polar coord.: r, theta, phi [deg] :     4.328036    0.001062   90.000000

 ==============================================================================

 ==============================================================================
     atom number    2 relative position :    0.0000   0.0000   1.4937
     charge :    13.665633  (integrated on a sphere of radius 0.045)
     magnetization :         -0.000000   -0.000001   -4.328404
     magnetization/charge:   -0.000000   -0.000000   -0.316736
     polar coord.: r, theta, phi [deg] :     4.328404  179.999993  -90.000000

 ==============================================================================

 ==============================================================================
     atom number    3 relative position :    0.0000   0.0000   0.6351
     charge :    12.628619  (integrated on a sphere of radius 0.046)
     magnetization :         -0.000000    0.000006   -0.021859
     magnetization/charge:   -0.000000    0.000000   -0.001731
     polar coord.: r, theta, phi [deg] :     0.021859  179.983746   90.000000

 ==============================================================================

 ==============================================================================
     atom number    4 relative position :    0.0000   0.0000   2.1281
     charge :    12.625489  (integrated on a sphere of radius 0.046)
     magnetization :         -0.000000   -0.000003    0.021868
     magnetization/charge:   -0.000000   -0.000000    0.001732
     polar coord.: r, theta, phi [deg] :     0.021868    0.007433  -90.000000

 ==============================================================================

 ==============================================================================
     atom number    5 relative position :    0.0000   0.0000   0.8587
     charge :    12.628516  (integrated on a sphere of radius 0.046)
     magnetization :         -0.000000    0.000047    0.021738
     magnetization/charge:   -0.000000    0.000004    0.001721
     polar coord.: r, theta, phi [deg] :     0.021738    0.123677   90.000000

 ==============================================================================

 ==============================================================================
     atom number    6 relative position :    0.0000   0.0000   2.3531
     charge :    12.625606  (integrated on a sphere of radius 0.046)
     magnetization :          0.000000   -0.000182   -0.021743
     magnetization/charge:    0.000000   -0.000014   -0.001722
     polar coord.: r, theta, phi [deg] :     0.021744  179.520013  -90.000000

 ==============================================================================

 ==============================================================================
     atom number    7 relative position :    0.0000   0.0000   0.1992
     charge :     3.792946  (integrated on a sphere of radius 0.045)
     magnetization :          0.000000   -0.000256    0.052385
     magnetization/charge:    0.000000   -0.000068    0.013811
     polar coord.: r, theta, phi [deg] :     0.052385    0.280132  -90.000000

 ==============================================================================

 ==============================================================================
     atom number    8 relative position :    0.0000   0.0000   1.6929
     charge :     3.799769  (integrated on a sphere of radius 0.045)
     magnetization :         -0.000000    0.000135   -0.051715
     magnetization/charge:   -0.000000    0.000036   -0.013610
     polar coord.: r, theta, phi [deg] :     0.051715  179.850382   90.000000

 ==============================================================================

 ==============================================================================
     atom number    9 relative position :    0.0000   0.0000   1.2945
     charge :     3.793020  (integrated on a sphere of radius 0.045)
     magnetization :         -0.000000   -0.000245   -0.052437
     magnetization/charge:   -0.000000   -0.000065   -0.013825
     polar coord.: r, theta, phi [deg] :     0.052438  179.732328  -90.000000

 ==============================================================================

 ==============================================================================
     atom number   10 relative position :    0.0000   0.0000   2.7883
     charge :     3.799674  (integrated on a sphere of radius 0.045)
     magnetization :          0.000000    0.000112    0.051547
     magnetization/charge:    0.000000    0.000029    0.013566
     polar coord.: r, theta, phi [deg] :     0.051547    0.124453   90.000000

 ==============================================================================

 ==============================================================================
     atom number   11 relative position :    0.0000   0.0000   0.4392
     charge :     3.842797  (integrated on a sphere of radius 0.045)
     magnetization :          0.000000   -0.000005   -0.012915
     magnetization/charge:    0.000000   -0.000001   -0.003361
     polar coord.: r, theta, phi [deg] :     0.012915  179.977228  -90.000000

 ==============================================================================

 ==============================================================================
     atom number   12 relative position :    0.0000   0.0000   1.9330
     charge :     3.840451  (integrated on a sphere of radius 0.045)
     magnetization :          0.000000    0.000009    0.012428
     magnetization/charge:    0.000000    0.000002    0.003236
     polar coord.: r, theta, phi [deg] :     0.012428    0.040384   90.000000

 ==============================================================================

 ==============================================================================
     atom number   13 relative position :    0.0000   0.0000   1.0545
     charge :     3.842549  (integrated on a sphere of radius 0.045)
     magnetization :          0.000000    0.000053    0.012902
     magnetization/charge:    0.000000    0.000014    0.003358
     polar coord.: r, theta, phi [deg] :     0.012902    0.237441   90.000000

 ==============================================================================

 ==============================================================================
     atom number   14 relative position :    0.0000   0.0000   2.5482
     charge :     3.840655  (integrated on a sphere of radius 0.045)
     magnetization :         -0.000000    0.000060   -0.011746
     magnetization/charge:   -0.000000    0.000016   -0.003058
     polar coord.: r, theta, phi [deg] :     0.011746  179.707633   90.000000

 ==============================================================================

     total cpu time spent up to now is    18154.1 secs

     total energy              =   -7140.71458209 Ry
     estimated scf accuracy    <       0.00008316 Ry

     total magnetization       =     0.00     0.00    -0.00 Bohr mag/cell
     absolute magnetization    =    10.08 Bohr mag/cell

     iteration #  7     ecut=    60.00 Ry     beta= 0.30
     Davidson diagonalization with overlap

---- Real-time Memory Report at c_bands before calling an iterative solver
           851 MiB given to the printing process from OS
             0 MiB allocation reported by mallinfo(arena+hblkhd)
        217922 MiB available memory on the node where the printing process lives
------------------
     ethr =  6.03E-08,  avg # of iterations =  8.0

 ==============================================================================
     atom number    1 relative position :    0.0000   0.0000   0.0000
     charge :    13.665593  (integrated on a sphere of radius 0.045)
     magnetization :          0.000000    0.000082    4.328025
     magnetization/charge:    0.000000    0.000006    0.316710
     polar coord.: r, theta, phi [deg] :     4.328025    0.001088   90.000000

 ==============================================================================

 ==============================================================================
     atom number    2 relative position :    0.0000   0.0000   1.4937
     charge :    13.665656  (integrated on a sphere of radius 0.045)
     magnetization :         -0.000000    0.000002   -4.328329
     magnetization/charge:   -0.000000    0.000000   -0.316730
     polar coord.: r, theta, phi [deg] :     4.328329  179.999969   90.000000

 ==============================================================================

 ==============================================================================
     atom number    3 relative position :    0.0000   0.0000   0.6351
     charge :    12.628628  (integrated on a sphere of radius 0.046)
     magnetization :          0.000000    0.000008   -0.021633
     magnetization/charge:    0.000000    0.000001   -0.001713
     polar coord.: r, theta, phi [deg] :     0.021633  179.979925   90.000000

 ==============================================================================

 ==============================================================================
     atom number    4 relative position :    0.0000   0.0000   2.1281
     charge :    12.625491  (integrated on a sphere of radius 0.046)
     magnetization :          0.000000   -0.000023    0.021702
     magnetization/charge:    0.000000   -0.000002    0.001719
     polar coord.: r, theta, phi [deg] :     0.021702    0.059770  -90.000000

 ==============================================================================

 ==============================================================================
     atom number    5 relative position :    0.0000   0.0000   0.8587
     charge :    12.628534  (integrated on a sphere of radius 0.046)
     magnetization :         -0.000000    0.000035    0.021576
     magnetization/charge:   -0.000000    0.000003    0.001709
     polar coord.: r, theta, phi [deg] :     0.021576    0.093166   90.000000

 ==============================================================================

 ==============================================================================
     atom number    6 relative position :    0.0000   0.0000   2.3531
     charge :    12.625598  (integrated on a sphere of radius 0.046)
     magnetization :         -0.000000   -0.000153   -0.021591
     magnetization/charge:   -0.000000   -0.000012   -0.001710
     polar coord.: r, theta, phi [deg] :     0.021592  179.595151  -90.000000

 ==============================================================================

 ==============================================================================
     atom number    7 relative position :    0.0000   0.0000   0.1992
     charge :     3.792940  (integrated on a sphere of radius 0.045)
     magnetization :          0.000000   -0.000254    0.052640
     magnetization/charge:    0.000000   -0.000067    0.013878
     polar coord.: r, theta, phi [deg] :     0.052640    0.276810  -90.000000

 ==============================================================================

 ==============================================================================
     atom number    8 relative position :    0.0000   0.0000   1.6929
     charge :     3.799496  (integrated on a sphere of radius 0.045)
     magnetization :         -0.000000    0.000137   -0.051856
     magnetization/charge:   -0.000000    0.000036   -0.013648
     polar coord.: r, theta, phi [deg] :     0.051856  179.848998   90.000000

 ==============================================================================

 ==============================================================================
     atom number    9 relative position :    0.0000   0.0000   1.2945
     charge :     3.793036  (integrated on a sphere of radius 0.045)
     magnetization :         -0.000000   -0.000268   -0.052680
     magnetization/charge:   -0.000000   -0.000071   -0.013889
     polar coord.: r, theta, phi [deg] :     0.052680  179.708171  -90.000000

 ==============================================================================

 ==============================================================================
     atom number   10 relative position :    0.0000   0.0000   2.7883
     charge :     3.799383  (integrated on a sphere of radius 0.045)
     magnetization :         -0.000000    0.000118    0.051699
     magnetization/charge:   -0.000000    0.000031    0.013607
     polar coord.: r, theta, phi [deg] :     0.051699    0.130786   90.000000

 ==============================================================================

 ==============================================================================
     atom number   11 relative position :    0.0000   0.0000   0.4392
     charge :     3.842808  (integrated on a sphere of radius 0.045)
     magnetization :         -0.000000   -0.000008   -0.012877
     magnetization/charge:   -0.000000   -0.000002   -0.003351
     polar coord.: r, theta, phi [deg] :     0.012877  179.963284  -90.000000

 ==============================================================================

 ==============================================================================
     atom number   12 relative position :    0.0000   0.0000   1.9330
     charge :     3.840531  (integrated on a sphere of radius 0.045)
     magnetization :          0.000000    0.000010    0.012479
     magnetization/charge:    0.000000    0.000003    0.003249
[...]

 ==============================================================================

 ==============================================================================
     atom number    8 relative position :    0.0000   0.0000   1.6929
     charge :     3.799309  (integrated on a sphere of radius 0.045)
     magnetization :          0.000000    0.000038   -0.050546
     magnetization/charge:    0.000000    0.000010   -0.013304
     polar coord.: r, theta, phi [deg] :     0.050546  179.957330   90.000000

 ==============================================================================

 ==============================================================================
     atom number    9 relative position :    0.0000   0.0000   1.2945
     charge :     3.793412  (integrated on a sphere of radius 0.045)
     magnetization :          0.000000    0.002761   -0.051507
     magnetization/charge:    0.000000    0.000728   -0.013578
     polar coord.: r, theta, phi [deg] :     0.051581  176.932100   90.000000

 ==============================================================================

 ==============================================================================
     atom number   10 relative position :    0.0000   0.0000   2.7883
     charge :     3.799154  (integrated on a sphere of radius 0.045)
     magnetization :          0.000000   -0.000179    0.050360
     magnetization/charge:    0.000000   -0.000047    0.013255
     polar coord.: r, theta, phi [deg] :     0.050360    0.203782  -90.000000

 ==============================================================================

 ==============================================================================
     atom number   11 relative position :    0.0000   0.0000   0.4392
     charge :     3.842926  (integrated on a sphere of radius 0.045)
     magnetization :          0.000000    0.000083   -0.013203
     magnetization/charge:    0.000000    0.000022   -0.003436
     polar coord.: r, theta, phi [deg] :     0.013203  179.641120   90.000000

 ==============================================================================

 ==============================================================================
     atom number   12 relative position :    0.0000   0.0000   1.9330
     charge :     3.840621  (integrated on a sphere of radius 0.045)
     magnetization :          0.000000    0.000243    0.012937
     magnetization/charge:    0.000000    0.000063    0.003369
     polar coord.: r, theta, phi [deg] :     0.012940    1.076544   90.000000

 ==============================================================================

 ==============================================================================
     atom number   13 relative position :    0.0000   0.0000   1.0545
     charge :     3.842787  (integrated on a sphere of radius 0.045)
     magnetization :          0.000000    0.000967    0.013233
     magnetization/charge:    0.000000    0.000252    0.003444
     polar coord.: r, theta, phi [deg] :     0.013268    4.180911   90.000000

 ==============================================================================

 ==============================================================================
     atom number   14 relative position :    0.0000   0.0000   2.5482
     charge :     3.840770  (integrated on a sphere of radius 0.045)
     magnetization :         -0.000000    0.000302   -0.013014
     magnetization/charge:   -0.000000    0.000079   -0.003388
     polar coord.: r, theta, phi [deg] :     0.013017  178.671604   90.000000

 ==============================================================================

     total cpu time spent up to now is   884652.5 secs

     total energy              =   -7140.71353615 Ry
     estimated scf accuracy    <       0.00000101 Ry

     total magnetization       =    -0.00    -0.00    -0.00 Bohr mag/cell
     absolute magnetization    =     9.97 Bohr mag/cell

     iteration #208     ecut=    60.00 Ry     beta= 0.30
     Davidson diagonalization with overlap

---- Real-time Memory Report at c_bands before calling an iterative solver
           965 MiB given to the printing process from OS
             0 MiB allocation reported by mallinfo(arena+hblkhd)
        208929 MiB available memory on the node where the printing process lives
------------------
     c_bands:  1 eigenvalues not converged
     ethr =  7.32E-10,  avg # of iterations =  5.8

 ==============================================================================
     atom number    1 relative position :    0.0000   0.0000   0.0000
     charge :    13.665577  (integrated on a sphere of radius 0.045)
     magnetization :          0.000000    0.000149    4.328937
     magnetization/charge:    0.000000    0.000011    0.316777
     polar coord.: r, theta, phi [deg] :     4.328937    0.001967   90.000000

 ==============================================================================

 ==============================================================================
     atom number    2 relative position :    0.0000   0.0000   1.4937
     charge :    13.665655  (integrated on a sphere of radius 0.045)
     magnetization :         -0.000000    0.000025   -4.328957
     magnetization/charge:   -0.000000    0.000002   -0.316776
     polar coord.: r, theta, phi [deg] :     4.328957  179.999674   90.000000

 ==============================================================================

 ==============================================================================
     atom number    3 relative position :    0.0000   0.0000   0.6351
     charge :    12.628588  (integrated on a sphere of radius 0.046)
     magnetization :         -0.000000   -0.000046   -0.022315
     magnetization/charge:   -0.000000   -0.000004   -0.001767
     polar coord.: r, theta, phi [deg] :     0.022315  179.881008  -90.000000

 ==============================================================================

 ==============================================================================
     atom number    4 relative position :    0.0000   0.0000   2.1281
     charge :    12.625603  (integrated on a sphere of radius 0.046)
     magnetization :         -0.000000   -0.000469    0.022649
     magnetization/charge:   -0.000000   -0.000037    0.001794
     polar coord.: r, theta, phi [deg] :     0.022654    1.185068  -90.000000

 ==============================================================================

 ==============================================================================
     atom number    5 relative position :    0.0000   0.0000   0.8587
     charge :    12.628528  (integrated on a sphere of radius 0.046)
     magnetization :          0.000000    0.000380    0.022479
     magnetization/charge:    0.000000    0.000030    0.001780
     polar coord.: r, theta, phi [deg] :     0.022482    0.967466   90.000000

 ==============================================================================

 ==============================================================================
     atom number    6 relative position :    0.0000   0.0000   2.3531
     charge :    12.625669  (integrated on a sphere of radius 0.046)
     magnetization :          0.000000   -0.000427   -0.022597
     magnetization/charge:    0.000000   -0.000034   -0.001790
     polar coord.: r, theta, phi [deg] :     0.022601  178.918301  -90.000000

 ==============================================================================

 ==============================================================================
     atom number    7 relative position :    0.0000   0.0000   0.1992
     charge :     3.793242  (integrated on a sphere of radius 0.045)
     magnetization :         -0.000000    0.002668    0.051336
     magnetization/charge:   -0.000000    0.000703    0.013534
     polar coord.: r, theta, phi [deg] :     0.051406    2.975010   90.000000

 ==============================================================================

 ==============================================================================
     atom number    8 relative position :    0.0000   0.0000   1.6929
     charge :     3.799295  (integrated on a sphere of radius 0.045)
     magnetization :          0.000000    0.000137   -0.050538
     magnetization/charge:    0.000000    0.000036   -0.013302
     polar coord.: r, theta, phi [deg] :     0.050538  179.845148   90.000000

 ==============================================================================

 ==============================================================================
     atom number    9 relative position :    0.0000   0.0000   1.2945
     charge :     3.793394  (integrated on a sphere of radius 0.045)
     magnetization :          0.000000    0.002800   -0.051515
     magnetization/charge:    0.000000    0.000738   -0.013580
     polar coord.: r, theta, phi [deg] :     0.051591  176.888431   90.000000

 ==============================================================================

 ==============================================================================
     atom number   10 relative position :    0.0000   0.0000   2.7883
     charge :     3.799139  (integrated on a sphere of radius 0.045)
     magnetization :          0.000000   -0.000094    0.050362
     magnetization/charge:    0.000000   -0.000025    0.013256
     polar coord.: r, theta, phi [deg] :     0.050362    0.107465  -90.000000

 ==============================================================================

 ==============================================================================
     atom number   11 relative position :    0.0000   0.0000   0.4392
     charge :     3.842926  (integrated on a sphere of radius 0.045)
     magnetization :          0.000000    0.000086   -0.013208
     magnetization/charge:    0.000000    0.000022   -0.003437
     polar coord.: r, theta, phi [deg] :     0.013208  179.628803   90.000000

 ==============================================================================

 ==============================================================================
     atom number   12 relative position :    0.0000   0.0000   1.9330
     charge :     3.840621  (integrated on a sphere of radius 0.045)
     magnetization :          0.000000    0.000255    0.012943
     magnetization/charge:    0.000000    0.000066    0.003370
     polar coord.: r, theta, phi [deg] :     0.012946    1.127045   90.000000

 ==============================================================================

 ==============================================================================
     atom number   13 relative position :    0.0000   0.0000   1.0545
     charge :     3.842787  (integrated on a sphere of radius 0.045)
     magnetization :         -0.000000    0.000951    0.013236
     magnetization/charge:   -0.000000    0.000247    0.003444
     polar coord.: r, theta, phi [deg] :     0.013270    4.107540   90.000000

 ==============================================================================

 ==============================================================================
     atom number   14 relative position :    0.0000   0.0000   2.5482
     charge :     3.840770  (integrated on a sphere of radius 0.045)
     magnetization :          0.000000    0.000314   -0.013017
     magnetization/charge:    0.000000    0.000082   -0.003389
     polar coord.: r, theta, phi [deg] :     0.013021  178.618993   90.000000

 ==============================================================================

     total cpu time spent up to now is   887676.4 secs

     total energy              =   -7140.71354903 Ry
     estimated scf accuracy    <       0.00000101 Ry

     total magnetization       =     0.00    -0.00    -0.00 Bohr mag/cell
     absolute magnetization    =     9.97 Bohr mag/cell

     iteration #209     ecut=    60.00 Ry     beta= 0.30
     Davidson diagonalization with overlap

---- Real-time Memory Report at c_bands before calling an iterative solver
           965 MiB given to the printing process from OS
             0 MiB allocation reported by mallinfo(arena+hblkhd)
        209068 MiB available memory on the node where the printing process lives
------------------
     ethr =  7.29E-10,  avg # of iterations =  9.9

 ==============================================================================
     atom number    1 relative position :    0.0000   0.0000   0.0000
     charge :    13.665576  (integrated on a sphere of radius 0.045)
     magnetization :         -0.000000    0.000146    4.328945
     magnetization/charge:   -0.000000    0.000011    0.316777
     polar coord.: r, theta, phi [deg] :     4.328945    0.001938   90.000000

 ==============================================================================

 ==============================================================================
     atom number    2 relative position :    0.0000   0.0000   1.4937
     charge :    13.665653  (integrated on a sphere of radius 0.045)
     magnetization :          0.000000    0.000029   -4.328969
     magnetization/charge:    0.000000    0.000002   -0.316777
     polar coord.: r, theta, phi [deg] :     4.328969  179.999615   90.000000

 ==============================================================================

 ==============================================================================
     atom number    3 relative position :    0.0000   0.0000   0.6351
     charge :    12.628583  (integrated on a sphere of radius 0.046)
     magnetization :          0.000000    0.000002   -0.022330
     magnetization/charge:    0.000000    0.000000   -0.001768
     polar coord.: r, theta, phi [deg] :     0.022330  179.994466   90.000000

 ==============================================================================

 ==============================================================================
     atom number    4 relative position :    0.0000   0.0000   2.1281
     charge :    12.625598  (integrated on a sphere of radius 0.046)
     magnetization :         -0.000000   -0.000634    0.022659
     magnetization/charge:   -0.000000   -0.000050    0.001795
     polar coord.: r, theta, phi [deg] :     0.022668    1.602758  -90.000000

 ==============================================================================

 ==============================================================================
     atom number    5 relative position :    0.0000   0.0000   0.8587
     charge :    12.628525  (integrated on a sphere of radius 0.046)
     magnetization :          0.000000    0.000425    0.022477
     magnetization/charge:    0.000000    0.000034    0.001780
     polar coord.: r, theta, phi [deg] :     0.022481    1.083092   90.000000

 ==============================================================================

 ==============================================================================
     atom number    6 relative position :    0.0000   0.0000   2.3531
     charge :    12.625664  (integrated on a sphere of radius 0.046)
     magnetization :          0.000000   -0.000517   -0.022612
     magnetization/charge:    0.000000   -0.000041   -0.001791
     polar coord.: r, theta, phi [deg] :     0.022618  178.689510  -90.000000

 ==============================================================================

 ==============================================================================
     atom number    7 relative position :    0.0000   0.0000   0.1992
     charge :     3.793200  (integrated on a sphere of radius 0.045)
     magnetization :          0.000000    0.002979    0.051320
     magnetization/charge:    0.000000    0.000785    0.013529
     polar coord.: r, theta, phi [deg] :     0.051406    3.322165   90.000000

 ==============================================================================

 ==============================================================================
     atom number    8 relative position :    0.0000   0.0000   1.6929
     charge :     3.799272  (integrated on a sphere of radius 0.045)
     magnetization :         -0.000000    0.000125   -0.050532
     magnetization/charge:   -0.000000    0.000033   -0.013301
     polar coord.: r, theta, phi [deg] :     0.050533  179.857717   90.000000

 ==============================================================================

 ==============================================================================
     atom number    9 relative position :    0.0000   0.0000   1.2945
     charge :     3.793352  (integrated on a sphere of radius 0.045)
     magnetization :         -0.000000    0.003048   -0.051504
     magnetization/charge:   -0.000000    0.000803   -0.013577
     polar coord.: r, theta, phi [deg] :     0.051594  176.613355   90.000000

 ==============================================================================

 ==============================================================================
     atom number   10 relative position :    0.0000   0.0000   2.7883
     charge :     3.799114  (integrated on a sphere of radius 0.045)
     magnetization :          0.000000   -0.000116    0.050348
     magnetization/charge:    0.000000   -0.000031    0.013253
     polar coord.: r, theta, phi [deg] :     0.050348    0.132101  -90.000000

 ==============================================================================

 ==============================================================================
     atom number   11 relative position :    0.0000   0.0000   0.4392
     charge :     3.842927  (integrated on a sphere of radius 0.045)
     magnetization :         -0.000000    0.000040   -0.013225
     magnetization/charge:   -0.000000    0.000010   -0.003441
     polar coord.: r, theta, phi [deg] :     0.013225  179.827261   90.000000

 ==============================================================================

 ==============================================================================
     atom number   12 relative position :    0.0000   0.0000   1.9330
     charge :     3.840622  (integrated on a sphere of radius 0.045)
     magnetization :         -0.000000    0.000271    0.012956
     magnetization/charge:   -0.000000    0.000071    0.003373
     polar coord.: r, theta, phi [deg] :     0.012959    1.197714   90.000000

 ==============================================================================

 ==============================================================================
     atom number   13 relative position :    0.0000   0.0000   1.0545
     charge :     3.842788  (integrated on a sphere of radius 0.045)
     magnetization :          0.000000    0.000853    0.013251
     magnetization/charge:    0.000000    0.000222    0.003448
     polar coord.: r, theta, phi [deg] :     0.013279    3.683245   90.000000

 ==============================================================================

 ==============================================================================
     atom number   14 relative position :    0.0000   0.0000   2.5482
     charge :     3.840769  (integrated on a sphere of radius 0.045)
     magnetization :          0.000000    0.000337   -0.013024
     magnetization/charge:    0.000000    0.000088   -0.003391
     polar coord.: r, theta, phi [deg] :     0.013029  178.517315   90.000000

 ==============================================================================

     total cpu time spent up to now is   892092.8 secs

     total energy              =   -7140.71358848 Ry
     estimated scf accuracy    <       0.00000100 Ry

     total magnetization       =    -0.00    -0.00    -0.00 Bohr mag/cell
     absolute magnetization    =     9.98 Bohr mag/cell

     iteration #210     ecut=    60.00 Ry     beta= 0.30
     Davidson diagonalization with overlap

---- Real-time Memory Report at c_bands before calling an iterative solver
           965 MiB given to the printing process from OS
             0 MiB allocation reported by mallinfo(arena+hblkhd)
        209053 MiB available memory on the node where the printing process lives
------------------
