
     Program BANDS v.7.2 starts on 24Sep2025 at 21:42:35 

     This program is part of the open-source Quantum ESPRESSO suite
     for quantum simulation of materials; please cite
         "P. Giannozzi et al., J. Phys.:Condens. Matter 21 395502 (2009);
         "P. Giannozzi et al., J. Phys.:Condens. Matter 29 465901 (2017);
         "P. Giannozzi et al., J. Chem. Phys. 152 154105 (2020);
          URL http://www.quantum-espresso.org", 
     in publications or presentations arising from this work. More details at
     http://www.quantum-espresso.org/quote

     Parallel version (MPI), running on    32 processors

     MPI processes distributed on     1 nodes
     R & G space division:  proc/nbgrp/npool/nimage =      32
     18200 MiB available memory on the printing compute node when the environment starts
 

     Reading xml data from directory:

     ./tmp/MnBi2Te4.save/
     file Mn.rel-pbe-spn-kjpaw_psl.0.3.1.UPF: wavefunction(s)  3P 3P 3D renormalized
     file Mn.rel-pbe-spn-kjpaw_psl.0.3.1.UPF: wavefunction(s)  3P 3P 3D renormalized
     file Bi.rel-pbe-dn-kjpaw_psl.1.0.0.UPF: wavefunction(s)  6P 6P 5D 5D renormalized
     file Te.rel-pbe-n-kjpaw_psl.1.0.0.UPF: wavefunction(s)  5S 5P 5P renormalized

     IMPORTANT: XC functional enforced from input :
     Exchange-correlation= PBE
                           (   1   4   3   4   0   0   0)
     Any further DFT definition will be discarded
     Please, verify this is what you really want

 
     Parallelization info
     --------------------
     sticks:   dense  smooth     PW     G-vecs:    dense   smooth      PW
     Min         252     252     70                 5873     5873     871
     Max         253     253     71                 5875     5875     873
     Sum        8079    8079   2257               187971   187971   27897
 
     Using Slab Decomposition
 

     Check: negative core charge=   -0.000015
     Reading collected, re-writing distributed wavefunctions
     high-symmetry point:  0.0000 0.0000 0.0000   x coordinate   0.0000
     high-symmetry point:  0.0000 0.0000 0.5021   x coordinate   0.5021
     high-symmetry point:  0.0000-3.5888 0.5021   x coordinate   0.5021
     high-symmetry point:  0.0000-3.6502 0.3347   x coordinate   0.6804
     high-symmetry point:  0.0000 0.0000 0.0000   x coordinate   0.6804
     high-symmetry point:  3.1612-1.8251 0.1674   x coordinate   0.6804

     Plottable bands (eV) written to file MnBi2Te4_bands.dat.gnu
     Bands written to file MnBi2Te4_bands.dat

 **************************************************************************

                    xk=(   0.00000,   0.00000,   0.00000  )

     the magnetic double point group is C_2h (2/m)  [C_i (-1)   ]
     using the double point group C_i (-1)   
     there are  4 classes and  2 irreducible representations
     the character table:

       E     -E    i     -i   
                              
G_2+   1.00 -1.00  1.00 -1.00
G_2-   1.00 -1.00 -1.00  1.00

     the symmetry operations in each class and the name of the first element:

     E             1
                                                                 
     -E           -1
                                                                 
     i             2
                                                                 
     -i           -2
                                                                 

     Band symmetry, C_2h (2/m)  [C_i (-1)   ] magnetic double point group,
     using C_i (-1)   

     e(  1 -  1) =    -74.32002  eV     1   --> G_2+           
     e(  2 -  2) =    -74.23210  eV     1   --> G_2+           
     e(  3 -  3) =    -69.66328  eV     1   --> G_2+           
     e(  4 -  4) =    -69.57571  eV     1   --> G_2+           
     e(  5 -  5) =    -43.55224  eV     1   --> G_2-           
     e(  6 -  6) =    -43.46430  eV     1   --> G_2-           
     e(  7 -  7) =    -43.18891  eV     1   --> G_2-           
     e(  8 -  8) =    -43.10141  eV     1   --> G_2-           
     e(  9 -  9) =    -42.63678  eV     1   --> G_2-           
     e( 10 - 10) =    -42.54880  eV     1   --> G_2-           
     e( 11 - 11) =    -38.83073  eV     1   --> G_2-           
     e( 12 - 12) =    -38.74334  eV     1   --> G_2-           
     e( 13 - 13) =    -38.44423  eV     1   --> G_2-           
     e( 14 - 14) =    -38.35673  eV     1   --> G_2-           
     e( 15 - 15) =    -38.07971  eV     1   --> G_2-           
     e( 16 - 16) =    -37.99226  eV     1   --> G_2-           
     e( 17 - 17) =    -16.88551  eV     1   --> G_2+           
     e( 18 - 18) =    -16.88529  eV     1   --> G_2-           
     e( 19 - 19) =    -16.88247  eV     1   --> G_2+           
     e( 20 - 20) =    -16.88231  eV     1   --> G_2-           
     e( 21 - 21) =    -16.87855  eV     1   --> G_2+           
     e( 22 - 22) =    -16.87839  eV     1   --> G_2-           
     e( 23 - 23) =    -16.87390  eV     1   --> G_2+           
     e( 24 - 24) =    -16.87368  eV     1   --> G_2-           
     e( 25 - 25) =    -16.85009  eV     1   -->   ?
     e( 26 - 26) =    -16.84992  eV     1   -->   ?
     e( 27 - 27) =    -16.84201  eV     1   -->   ?
     e( 28 - 28) =    -16.84180  eV     1   -->   ?
     e( 29 - 29) =    -16.82776  eV     1   -->   ?
     e( 30 - 30) =    -16.82754  eV     1   -->   ?
     e( 31 - 31) =    -16.82146  eV     1   -->   ?
     e( 32 - 32) =    -16.82129  eV     1   -->   ?
     e( 33 - 33) =    -13.91297  eV     1   --> G_2+           
     e( 34 - 34) =    -13.91275  eV     1   --> G_2-           
     e( 35 - 35) =    -13.90391  eV     1   -->   ?
     e( 36 - 36) =    -13.90377  eV     1   -->   ?
     e( 37 - 37) =    -13.90103  eV     1   -->   ?
     e( 38 - 38) =    -13.90086  eV     1   -->   ?
     e( 39 - 39) =    -13.89325  eV     1   -->   ?
     e( 40 - 40) =    -13.89311  eV     1   -->   ?
     e( 41 - 41) =    -13.89016  eV     1   -->   ?
     e( 42 - 42) =    -13.89001  eV     1   -->   ?
     e( 43 - 43) =    -13.88435  eV     1   --> G_2+           
     e( 44 - 44) =    -13.88411  eV     1   --> G_2-           
     e( 45 - 45) =    -13.87723  eV     1   -->   ?
     e( 46 - 46) =    -13.87706  eV     1   -->   ?
     e( 47 - 47) =    -13.86153  eV     1   -->   ?
     e( 48 - 48) =    -13.86132  eV     1   -->   ?
     e( 49 - 49) =    -13.85808  eV     1   --> G_2+           
     e( 50 - 50) =    -13.85793  eV     1   --> G_2-           
     e( 51 - 51) =    -13.85242  eV     1   --> G_2+           
     e( 52 - 52) =    -13.85229  eV     1   --> G_2-           
     e( 53 - 53) =    -13.83828  eV     1   -->   ?
     e( 54 - 54) =    -13.83806  eV     1   -->   ?
     e( 55 - 55) =    -13.82877  eV     1   -->   ?
     e( 56 - 56) =    -13.82861  eV     1   -->   ?
     e( 57 - 57) =     -5.50619  eV     1   --> G_2+           
     e( 58 - 58) =     -5.47533  eV     1   --> G_2-           
     e( 59 - 59) =     -5.38032  eV     1   --> G_2+           
     e( 60 - 60) =     -5.34353  eV     1   --> G_2-           
     e( 61 - 61) =     -5.29862  eV     1   --> G_2+           
     e( 62 - 62) =     -5.25147  eV     1   --> G_2-           
     e( 63 - 63) =     -5.14629  eV     1   --> G_2+           
     e( 64 - 64) =     -5.08463  eV     1   --> G_2-           
     e( 65 - 65) =     -3.83978  eV     1   --> G_2+           
     e( 66 - 66) =     -3.81497  eV     1   --> G_2+           
     e( 67 - 67) =     -3.61422  eV     1   --> G_2+           
     e( 68 - 68) =     -3.58290  eV     1   --> G_2+           
     e( 69 - 69) =     -3.35195  eV     1   --> G_2-           
     e( 70 - 70) =     -3.32296  eV     1   --> G_2-           
     e( 71 - 71) =     -3.06077  eV     1   --> G_2-           
     e( 72 - 72) =     -3.04452  eV     1   --> G_2-           
     e( 73 - 73) =     -1.45509  eV     1   --> G_2+           
     e( 74 - 74) =     -1.43017  eV     1   --> G_2+           
     e( 75 - 75) =     -1.10548  eV     1   --> G_2-           
     e( 76 - 76) =     -1.09029  eV     1   --> G_2-           
     e( 77 - 77) =     -0.75795  eV     1   --> G_2+           
     e( 78 - 78) =     -0.74033  eV     1   --> G_2+           
     e( 79 - 79) =     -0.47355  eV     1   --> G_2-           
     e( 80 - 80) =     -0.45342  eV     1   --> G_2-           
     e( 81 - 81) =      3.32568  eV     1   --> G_2+           
     e( 82 - 82) =      3.39572  eV     1   --> G_2+           
     e( 83 - 83) =      3.55346  eV     1   --> G_2+           
     e( 84 - 84) =      3.60845  eV     1   --> G_2+           
     e( 85 - 85) =      3.63679  eV     1   --> G_2+           
     e( 86 - 86) =      3.69438  eV     1   --> G_2+           
     e( 87 - 87) =      4.01419  eV     1   --> G_2+           
     e( 88 - 88) =      4.02705  eV     1   --> G_2+           
     e( 89 - 89) =      4.09312  eV     1   --> G_2+           
     e( 90 - 90) =      4.09998  eV     1   --> G_2+           
     e( 91 - 91) =      4.11353  eV     1   --> G_2+           
     e( 92 - 92) =      4.14857  eV     1   --> G_2+           
     e( 93 - 93) =      4.56540  eV     1   --> G_2+           
     e( 94 - 94) =      4.61908  eV     1   --> G_2+           
     e( 95 - 95) =      4.68151  eV     1   --> G_2-           
     e( 96 - 96) =      4.72534  eV     1   --> G_2-           
     e( 97 - 97) =      5.22352  eV     1   --> G_2-           
     e( 98 - 98) =      5.24792  eV     1   --> G_2-           
     e( 99 - 99) =      5.27238  eV     1   --> G_2+           
     e(100 -100) =      5.30833  eV     1   --> G_2+           
     e(101 -101) =      5.52351  eV     1   --> G_2+           
     e(102 -102) =      5.54461  eV     1   --> G_2+           
     e(103 -103) =      5.71051  eV     1   --> G_2+           
     e(104 -104) =      5.74847  eV     1   --> G_2+           
     e(105 -105) =      5.76845  eV     1   --> G_2-           
     e(106 -106) =      5.83143  eV     1   --> G_2-           
     e(107 -107) =      6.01463  eV     1   --> G_2+           
     e(108 -108) =      6.04602  eV     1   --> G_2+           
     e(109 -109) =      6.11615  eV     1   --> G_2+           
     e(110 -110) =      6.18787  eV     1   --> G_2+           
     e(111 -111) =      6.22959  eV     1   --> G_2-           
     e(112 -112) =      6.23982  eV     1   --> G_2-           
     e(113 -113) =      6.37856  eV     1   --> G_2-           
     e(114 -114) =      6.38031  eV     1   --> G_2-           
     e(115 -115) =      6.38935  eV     1   --> G_2-           
     e(116 -116) =      6.40898  eV     1   --> G_2-           
     e(117 -117) =      6.42036  eV     1   --> G_2+           
     e(118 -118) =      6.44662  eV     1   --> G_2+           
     e(119 -119) =      6.66778  eV     1   --> G_2-           
     e(120 -120) =      6.68485  eV     1   --> G_2-           
     e(121 -121) =      6.73115  eV     1   --> G_2+           
     e(122 -122) =      6.76126  eV     1   --> G_2+           
     e(123 -123) =      6.82514  eV     1   --> G_2-           
     e(124 -124) =      6.84881  eV     1   --> G_2-           
     e(125 -125) =      7.01055  eV     1   --> G_2-           
     e(126 -126) =      7.02491  eV     1   --> G_2-           
     e(127 -127) =      7.02970  eV     1   --> G_2+           
     e(128 -128) =      7.09061  eV     1   --> G_2+           
     e(129 -129) =      7.19416  eV     1   --> G_2-           
     e(130 -130) =      7.23385  eV     1   --> G_2-           
     e(131 -131) =      7.30650  eV     1   --> G_2-           
     e(132 -132) =      7.35081  eV     1   --> G_2-           
     e(133 -133) =      7.54042  eV     1   --> G_2+           
     e(134 -134) =      7.55755  eV     1   --> G_2+           
     e(135 -135) =      7.62220  eV     1   --> G_2+           
     e(136 -136) =      7.65117  eV     1   --> G_2+           
     e(137 -137) =      7.70935  eV     1   --> G_2+           
     e(138 -138) =      7.71935  eV     1   --> G_2+           
     e(139 -139) =      7.85282  eV     1   --> G_2-           
     e(140 -140) =      7.86070  eV     1   --> G_2-           
     e(141 -141) =      7.91208  eV     1   --> G_2-           
     e(142 -142) =      7.94589  eV     1   --> G_2-           
     e(143 -143) =      8.06238  eV     1   --> G_2+           
     e(144 -144) =      8.10417  eV     1   --> G_2+           
     e(145 -145) =      8.17616  eV     1   --> G_2-           
     e(146 -146) =      8.22746  eV     1   --> G_2-           
     e(147 -147) =      8.81245  eV     1   --> G_2+           
     e(148 -148) =      8.85840  eV     1   --> G_2+           
     e(149 -149) =      8.89547  eV     1   --> G_2+           
     e(150 -150) =      8.93490  eV     1   --> G_2+           
     e(151 -151) =      9.02352  eV     1   --> G_2+           
     e(152 -152) =      9.03799  eV     1   --> G_2+           
     e(153 -153) =      9.12568  eV     1   --> G_2+           
     e(154 -154) =      9.13902  eV     1   --> G_2+           
     e(155 -155) =      9.21331  eV     1   --> G_2+           
     e(156 -156) =      9.26215  eV     1   --> G_2+           
     e(157 -157) =      9.35905  eV     1   --> G_2-           
     e(158 -158) =      9.37049  eV     1   --> G_2+           
     e(159 -159) =      9.39496  eV     1   --> G_2+           
     e(160 -160) =      9.42010  eV     1   --> G_2-           
     e(161 -161) =      9.51461  eV     1   --> G_2-           
     e(162 -162) =      9.54367  eV     1   --> G_2-           
     e(163 -163) =      9.57994  eV     1   --> G_2-           
     e(164 -164) =      9.65900  eV     1   --> G_2-           
     e(165 -165) =      9.87378  eV     1   --> G_2+           
     e(166 -166) =      9.88945  eV     1   --> G_2-           
     e(167 -167) =      9.91381  eV     1   --> G_2+           
     e(168 -168) =      9.95507  eV     1   --> G_2-           
     e(169 -169) =      9.99280  eV     1   --> G_2+           
     e(170 -170) =     10.06744  eV     1   --> G_2+           
     e(171 -171) =     10.49932  eV     1   --> G_2+           
     e(172 -172) =     10.56598  eV     1   --> G_2+           
     e(173 -173) =     11.41503  eV     1   --> G_2-           
     e(174 -174) =     11.48045  eV     1   --> G_2-           
     e(175 -175) =     11.69739  eV     1   --> G_2+           
     e(176 -176) =     11.73944  eV     1   --> G_2-           
     e(177 -177) =     11.77131  eV     1   --> G_2+           
     e(178 -178) =     11.79535  eV     1   --> G_2-           
     e(179 -179) =     12.49852  eV     1   --> G_2+           
     e(180 -180) =     12.56835  eV     1   --> G_2+           
     e(181 -181) =     12.71184  eV     1   --> G_2-           
     e(182 -182) =     12.77349  eV     1   --> G_2-           
     e(183 -183) =     12.84563  eV     1   --> G_2-           
     e(184 -184) =     12.91394  eV     1   --> G_2-           
     e(185 -185) =     13.21385  eV     1   --> G_2+           
     e(186 -186) =     13.24830  eV     1   --> G_2-           
     e(187 -187) =     13.29060  eV     1   --> G_2+           
     e(188 -188) =     13.31840  eV     1   --> G_2-           
     e(189 -189) =     13.32490  eV     1   --> G_2+           
     e(190 -190) =     13.35349  eV     1   --> G_2-           
     e(191 -191) =     13.40790  eV     1   --> G_2-           
     e(192 -192) =     13.48068  eV     1   --> G_2+           
     e(193 -193) =     13.50081  eV     1   --> G_2-           
     e(194 -194) =     13.56362  eV     1   --> G_2-           
     e(195 -195) =     13.68207  eV     1   --> G_2+           
     e(196 -196) =     13.69865  eV     1   --> G_2+           
     e(197 -197) =     13.73540  eV     1   --> G_2-           
     e(198 -198) =     13.76981  eV     1   --> G_2+           
     e(199 -199) =     13.79775  eV     1   --> G_2+           
     e(200 -200) =     13.83673  eV     1   --> G_2+           
     e(201 -201) =     13.96033  eV     1   --> G_2-           
     e(202 -202) =     14.11209  eV     1   --> G_2+           
     e(203 -203) =     14.14888  eV     1   --> G_2-           
     e(204 -204) =     14.19028  eV     1   --> G_2+           
     e(205 -205) =     14.19690  eV     1   --> G_2+           
     e(206 -206) =     14.20709  eV     1   --> G_2-           
     e(207 -207) =     14.25190  eV     1   --> G_2-           
     e(208 -208) =     14.26803  eV     1   --> G_2-           
     e(209 -209) =     14.37341  eV     1   --> G_2+           
     e(210 -210) =     14.37941  eV     1   --> G_2+           
     e(211 -211) =     14.50578  eV     1   --> G_2-           
     e(212 -212) =     14.69873  eV     1   --> G_2-           
     e(213 -213) =     14.73975  eV     1   --> G_2-           
     e(214 -214) =     14.78533  eV     1   --> G_2-           
     e(215 -215) =     14.89443  eV     1   --> G_2-           
     e(216 -216) =     15.00511  eV     1   --> G_2-           
     e(217 -217) =     15.00907  eV     1   --> G_2+           
     e(218 -218) =     15.03086  eV     1   --> G_2-           
     e(219 -219) =     15.14577  eV     1   --> G_2+           
     e(220 -220) =     15.23925  eV     1   --> G_2+           
     e(221 -221) =     15.34911  eV     1   --> G_2+           
     e(222 -222) =     15.35700  eV     1   --> G_2+           
     e(223 -223) =     15.40609  eV     1   --> G_2-           
     e(224 -224) =     15.41058  eV     1   --> G_2+           
     e(225 -225) =     15.53669  eV     1   --> G_2+           
     e(226 -226) =     15.55431  eV     1   --> G_2+           
     e(227 -227) =     15.60563  eV     1   --> G_2+           
     e(228 -228) =     15.61145  eV     1   --> G_2-           
     e(229 -229) =     15.64333  eV     1   --> G_2+           
     e(230 -230) =     15.70689  eV     1   --> G_2+           
     e(231 -231) =     15.72737  eV     1   --> G_2+           
     e(232 -232) =     15.79630  eV     1   --> G_2-           
     e(233 -233) =     15.92085  eV     1   --> G_2-           
     e(234 -234) =     16.23791  eV     1   --> G_2-           
     e(235 -235) =     16.25818  eV     1   --> G_2-           
     e(236 -236) =     16.33345  eV     1   --> G_2-           
     e(237 -237) =     16.35932  eV     1   --> G_2-           
     e(238 -238) =     16.37868  eV     1   --> G_2-           
     e(239 -239) =     16.45720  eV     1   --> G_2+           
     e(240 -240) =     16.47901  eV     1   --> G_2-           

 **************************************************************************

 **************************************************************************

                    xk=(   0.00000,   0.00000,   0.01004  )

     the magnetic double point group is C_2  (2)    [C_1 (1)    ]
     using the double point group C_1 (1)    
     there are  2 classes and  1 irreducible representations
     the character table:

       E     -E   
                  
G_2    1.00 -1.00

     the symmetry operations in each class and the name of the first element:

     E             1
                                                                 
     -E           -1
                                                                 

     Band symmetry, C_2  (2)    [C_1 (1)    ] magnetic double point group,
     using C_1 (1)    

     e(  1 -  1) =    -74.32002  eV     1   --> G_2            
     e(  2 -  2) =    -74.23210  eV     1   --> G_2            
     e(  3 -  3) =    -69.66328  eV     1   --> G_2            
     e(  4 -  4) =    -69.57571  eV     1   --> G_2            
     e(  5 -  5) =    -43.55224  eV     1   --> G_2            
     e(  6 -  6) =    -43.46430  eV     1   --> G_2            
     e(  7 -  7) =    -43.18891  eV     1   --> G_2            
     e(  8 -  8) =    -43.10141  eV     1   --> G_2            
     e(  9 -  9) =    -42.63678  eV     1   --> G_2            
     e( 10 - 10) =    -42.54880  eV     1   --> G_2            
     e( 11 - 11) =    -38.83073  eV     1   --> G_2            
     e( 12 - 12) =    -38.74334  eV     1   --> G_2            
     e( 13 - 13) =    -38.44423  eV     1   --> G_2            
     e( 14 - 14) =    -38.35673  eV     1   --> G_2            
     e( 15 - 15) =    -38.07971  eV     1   --> G_2            
     e( 16 - 16) =    -37.99226  eV     1   --> G_2            
     e( 17 - 17) =    -16.88553  eV     1   --> G_2            
     e( 18 - 18) =    -16.88528  eV     1   --> G_2            
     e( 19 - 19) =    -16.88248  eV     1   --> G_2            
     e( 20 - 20) =    -16.88229  eV     1   --> G_2            
     e( 21 - 21) =    -16.87856  eV     1   --> G_2            
     e( 22 - 22) =    -16.87838  eV     1   --> G_2            
     e( 23 - 23) =    -16.87391  eV     1   --> G_2            
     e( 24 - 24) =    -16.87367  eV     1   --> G_2            
     e( 25 - 25) =    -16.85010  eV     1   --> G_2            
     e( 26 - 26) =    -16.84991  eV     1   --> G_2            
     e( 27 - 27) =    -16.84202  eV     1   --> G_2            
     e( 28 - 28) =    -16.84179  eV     1   --> G_2            
     e( 29 - 29) =    -16.82777  eV     1   --> G_2            
     e( 30 - 30) =    -16.82753  eV     1   --> G_2            
     e( 31 - 31) =    -16.82147  eV     1   --> G_2            
     e( 32 - 32) =    -16.82128  eV     1   --> G_2            
     e( 33 - 33) =    -13.91298  eV     1   --> G_2            
     e( 34 - 34) =    -13.91273  eV     1   --> G_2            
     e( 35 - 35) =    -13.90392  eV     1   --> G_2            
     e( 36 - 36) =    -13.90376  eV     1   --> G_2            
     e( 37 - 37) =    -13.90103  eV     1   --> G_2            
     e( 38 - 38) =    -13.90085  eV     1   --> G_2            
     e( 39 - 39) =    -13.89326  eV     1   --> G_2            
     e( 40 - 40) =    -13.89310  eV     1   --> G_2            
     e( 41 - 41) =    -13.89018  eV     1   --> G_2            
     e( 42 - 42) =    -13.89000  eV     1   --> G_2            
     e( 43 - 43) =    -13.88436  eV     1   --> G_2            
     e( 44 - 44) =    -13.88411  eV     1   --> G_2            
     e( 45 - 45) =    -13.87725  eV     1   --> G_2            
     e( 46 - 46) =    -13.87704  eV     1   --> G_2            
     e( 47 - 47) =    -13.86154  eV     1   --> G_2            
     e( 48 - 48) =    -13.86131  eV     1   --> G_2            
     e( 49 - 49) =    -13.85809  eV     1   --> G_2            
     e( 50 - 50) =    -13.85791  eV     1   --> G_2            
     e( 51 - 51) =    -13.85243  eV     1   --> G_2            
     e( 52 - 52) =    -13.85227  eV     1   --> G_2            
     e( 53 - 53) =    -13.83829  eV     1   --> G_2            
     e( 54 - 54) =    -13.83806  eV     1   --> G_2            
     e( 55 - 55) =    -13.82879  eV     1   --> G_2            
     e( 56 - 56) =    -13.82860  eV     1   --> G_2            
     e( 57 - 57) =     -5.50619  eV     1   --> G_2            
     e( 58 - 58) =     -5.47534  eV     1   --> G_2            
     e( 59 - 59) =     -5.38031  eV     1   --> G_2            
     e( 60 - 60) =     -5.34354  eV     1   --> G_2            
     e( 61 - 61) =     -5.29861  eV     1   --> G_2            
     e( 62 - 62) =     -5.25148  eV     1   --> G_2            
     e( 63 - 63) =     -5.14628  eV     1   --> G_2            
     e( 64 - 64) =     -5.08465  eV     1   --> G_2            
     e( 65 - 65) =     -3.83975  eV     1   --> G_2            
     e( 66 - 66) =     -3.81494  eV     1   --> G_2            
     e( 67 - 67) =     -3.61430  eV     1   --> G_2            
     e( 68 - 68) =     -3.58302  eV     1   --> G_2            
     e( 69 - 69) =     -3.35182  eV     1   --> G_2            
     e( 70 - 70) =     -3.32286  eV     1   --> G_2            
     e( 71 - 71) =     -3.06082  eV     1   --> G_2            
     e( 72 - 72) =     -3.04458  eV     1   --> G_2            
     e( 73 - 73) =     -1.45502  eV     1   --> G_2            
     e( 74 - 74) =     -1.43010  eV     1   --> G_2            
     e( 75 - 75) =     -1.10562  eV     1   --> G_2            
     e( 76 - 76) =     -1.09044  eV     1   --> G_2            
     e( 77 - 77) =     -0.75781  eV     1   --> G_2            
     e( 78 - 78) =     -0.74020  eV     1   --> G_2            
     e( 79 - 79) =     -0.47360  eV     1   --> G_2            
     e( 80 - 80) =     -0.45347  eV     1   --> G_2            
     e( 81 - 81) =      3.32569  eV     1   --> G_2            
     e( 82 - 82) =      3.39573  eV     1   --> G_2            
     e( 83 - 83) =      3.55346  eV     1   --> G_2            
     e( 84 - 84) =      3.60845  eV     1   --> G_2            
     e( 85 - 85) =      3.63680  eV     1   --> G_2            
     e( 86 - 86) =      3.69439  eV     1   --> G_2            
     e( 87 - 87) =      4.01419  eV     1   --> G_2            
     e( 88 - 88) =      4.02705  eV     1   --> G_2            
     e( 89 - 89) =      4.09311  eV     1   --> G_2            
     e( 90 - 90) =      4.09998  eV     1   --> G_2            
     e( 91 - 91) =      4.11352  eV     1   --> G_2            
     e( 92 - 92) =      4.14856  eV     1   --> G_2            
     e( 93 - 93) =      4.56526  eV     1   --> G_2            
     e( 94 - 94) =      4.61888  eV     1   --> G_2            
     e( 95 - 95) =      4.68180  eV     1   --> G_2            
     e( 96 - 96) =      4.72553  eV     1   --> G_2            
     e( 97 - 97) =      5.22317  eV     1   --> G_2            
     e( 98 - 98) =      5.24680  eV     1   --> G_2            
     e( 99 - 99) =      5.27346  eV     1   --> G_2            
     e(100 -100) =      5.30864  eV     1   --> G_2            
     e(101 -101) =      5.52350  eV     1   --> G_2            
     e(102 -102) =      5.54458  eV     1   --> G_2            
     e(103 -103) =      5.71051  eV     1   --> G_2            
     e(104 -104) =      5.74838  eV     1   --> G_2            
     e(105 -105) =      5.76854  eV     1   --> G_2            
     e(106 -106) =      5.83144  eV     1   --> G_2            
     e(107 -107) =      6.01459  eV     1   --> G_2            
     e(108 -108) =      6.04597  eV     1   --> G_2            
     e(109 -109) =      6.11615  eV     1   --> G_2            
     e(110 -110) =      6.18787  eV     1   --> G_2            
     e(111 -111) =      6.22964  eV     1   --> G_2            
     e(112 -112) =      6.23986  eV     1   --> G_2            
     e(113 -113) =      6.37853  eV     1   --> G_2            
     e(114 -114) =      6.38030  eV     1   --> G_2            
     e(115 -115) =      6.38934  eV     1   --> G_2            
     e(116 -116) =      6.40897  eV     1   --> G_2            
     e(117 -117) =      6.42037  eV     1   --> G_2            
     e(118 -118) =      6.44661  eV     1   --> G_2            
     e(119 -119) =      6.66779  eV     1   --> G_2            
     e(120 -120) =      6.68486  eV     1   --> G_2            
     e(121 -121) =      6.73115  eV     1   --> G_2            
     e(122 -122) =      6.76125  eV     1   --> G_2            
     e(123 -123) =      6.82517  eV     1   --> G_2            
     e(124 -124) =      6.84884  eV     1   --> G_2            
     e(125 -125) =      7.01049  eV     1   --> G_2            
     e(126 -126) =      7.02481  eV     1   --> G_2            
     e(127 -127) =      7.02980  eV     1   --> G_2            
     e(128 -128) =      7.09064  eV     1   --> G_2            
     e(129 -129) =      7.19417  eV     1   --> G_2            
     e(130 -130) =      7.23387  eV     1   --> G_2            
     e(131 -131) =      7.30648  eV     1   --> G_2            
     e(132 -132) =      7.35079  eV     1   --> G_2            
     e(133 -133) =      7.54037  eV     1   --> G_2            
     e(134 -134) =      7.55750  eV     1   --> G_2            
     e(135 -135) =      7.62223  eV     1   --> G_2            
     e(136 -136) =      7.65117  eV     1   --> G_2            
     e(137 -137) =      7.70935  eV     1   --> G_2            
     e(138 -138) =      7.71936  eV     1   --> G_2            
     e(139 -139) =      7.85281  eV     1   --> G_2            
     e(140 -140) =      7.86076  eV     1   --> G_2            
     e(141 -141) =      7.91214  eV     1   --> G_2            
     e(142 -142) =      7.94585  eV     1   --> G_2            
     e(143 -143) =      8.06240  eV     1   --> G_2            
     e(144 -144) =      8.10419  eV     1   --> G_2            
     e(145 -145) =      8.17612  eV     1   --> G_2            
     e(146 -146) =      8.22742  eV     1   --> G_2            
     e(147 -147) =      8.81246  eV     1   --> G_2            
     e(148 -148) =      8.85839  eV     1   --> G_2            
     e(149 -149) =      8.89548  eV     1   --> G_2            
     e(150 -150) =      8.93489  eV     1   --> G_2            
     e(151 -151) =      9.02352  eV     1   --> G_2            
     e(152 -152) =      9.03800  eV     1   --> G_2            
     e(153 -153) =      9.12566  eV     1   --> G_2            
     e(154 -154) =      9.13903  eV     1   --> G_2            
     e(155 -155) =      9.21329  eV     1   --> G_2            
     e(156 -156) =      9.26211  eV     1   --> G_2            
     e(157 -157) =      9.35865  eV     1   --> G_2            
     e(158 -158) =      9.37091  eV     1   --> G_2            
     e(159 -159) =      9.39487  eV     1   --> G_2            
     e(160 -160) =      9.42021  eV     1   --> G_2            
     e(161 -161) =      9.51470  eV     1   --> G_2            
     e(162 -162) =      9.54373  eV     1   --> G_2            
     e(163 -163) =      9.57992  eV     1   --> G_2            
     e(164 -164) =      9.65897  eV     1   --> G_2            
     e(165 -165) =      9.87318  eV     1   --> G_2            
     e(166 -166) =      9.88952  eV     1   --> G_2            
     e(167 -167) =      9.91405  eV     1   --> G_2            
     e(168 -168) =      9.95520  eV     1   --> G_2            
     e(169 -169) =      9.99291  eV     1   --> G_2            
     e(170 -170) =     10.06746  eV     1   --> G_2            
     e(171 -171) =     10.49930  eV     1   --> G_2            
     e(172 -172) =     10.56597  eV     1   --> G_2            
     e(173 -173) =     11.41504  eV     1   --> G_2            
     e(174 -174) =     11.48046  eV     1   --> G_2            
     e(175 -175) =     11.69736  eV     1   --> G_2            
     e(176 -176) =     11.73930  eV     1   --> G_2            
     e(177 -177) =     11.77143  eV     1   --> G_2            
     e(178 -178) =     11.79537  eV     1   --> G_2            
     e(179 -179) =     12.49855  eV     1   --> G_2            
     e(180 -180) =     12.56837  eV     1   --> G_2            
     e(181 -181) =     12.71184  eV     1   --> G_2            
     e(182 -182) =     12.77349  eV     1   --> G_2            
     e(183 -183) =     12.84563  eV     1   --> G_2            
     e(184 -184) =     12.91394  eV     1   --> G_2            
     e(185 -185) =     13.21380  eV     1   --> G_2            
     e(186 -186) =     13.24832  eV     1   --> G_2            
     e(187 -187) =     13.29049  eV     1   --> G_2            
     e(188 -188) =     13.31840  eV     1   --> G_2            
     e(189 -189) =     13.32475  eV     1   --> G_2            
     e(190 -190) =     13.35351  eV     1   --> G_2            
     e(191 -191) =     13.40789  eV     1   --> G_2            
     e(192 -192) =     13.48020  eV     1   --> G_2            
     e(193 -193) =     13.50143  eV     1   --> G_2            
     e(194 -194) =     13.56366  eV     1   --> G_2            
     e(195 -195) =     13.68211  eV     1   --> G_2            
     e(196 -196) =     13.69870  eV     1   --> G_2            
     e(197 -197) =     13.73514  eV     1   --> G_2            
     e(198 -198) =     13.77018  eV     1   --> G_2            
     e(199 -199) =     13.79794  eV     1   --> G_2            
     e(200 -200) =     13.83679  eV     1   --> G_2            
     e(201 -201) =     13.96020  eV     1   --> G_2            
     e(202 -202) =     14.11216  eV     1   --> G_2            
     e(203 -203) =     14.14836  eV     1   --> G_2            
     e(204 -204) =     14.19004  eV     1   --> G_2            
     e(205 -205) =     14.19447  eV     1   --> G_2            
     e(206 -206) =     14.20972  eV     1   --> G_2            
     e(207 -207) =     14.25204  eV     1   --> G_2            
     e(208 -208) =     14.26781  eV     1   --> G_2            
     e(209 -209) =     14.37382  eV     1   --> G_2            
     e(210 -210) =     14.37971  eV     1   --> G_2            
     e(211 -211) =     14.50560  eV     1   --> G_2            
     e(212 -212) =     14.69864  eV     1   --> G_2            
     e(213 -213) =     14.73962  eV     1   --> G_2            
     e(214 -214) =     14.78525  eV     1   --> G_2            
     e(215 -215) =     14.89404  eV     1   --> G_2            
     e(216 -216) =     15.00470  eV     1   --> G_2            
     e(217 -217) =     15.00902  eV     1   --> G_2            
     e(218 -218) =     15.03049  eV     1   --> G_2            
     e(219 -219) =     15.14635  eV     1   --> G_2            
     e(220 -220) =     15.23967  eV     1   --> G_2            
     e(221 -221) =     15.34938  eV     1   --> G_2            
     e(222 -222) =     15.35721  eV     1   --> G_2            
     e(223 -223) =     15.40617  eV     1   --> G_2            
     e(224 -224) =     15.41074  eV     1   --> G_2            
     e(225 -225) =     15.53679  eV     1   --> G_2            
     e(226 -226) =     15.55442  eV     1   --> G_2            
     e(227 -227) =     15.60576  eV     1   --> G_2            
     e(228 -228) =     15.61142  eV     1   --> G_2            
     e(229 -229) =     15.64348  eV     1   --> G_2            
     e(230 -230) =     15.70702  eV     1   --> G_2            
     e(231 -231) =     15.72750  eV     1   --> G_2            
     e(232 -232) =     15.79622  eV     1   --> G_2            
     e(233 -233) =     15.92095  eV     1   --> G_2            
     e(234 -234) =     16.23749  eV     1   --> G_2            
     e(235 -235) =     16.25780  eV     1   --> G_2            
     e(236 -236) =     16.33293  eV     1   --> G_2            
     e(237 -237) =     16.35869  eV     1   --> G_2            
     e(238 -238) =     16.37814  eV     1   --> G_2            
     e(239 -239) =     16.45489  eV     1   --> G_2            
     e(240 -240) =     16.47595  eV     1   --> G_2            

 **************************************************************************

 **************************************************************************

                    xk=(   0.00000,   0.00000,   0.02008  )

     Band symmetry, C_2  (2)    [C_1 (1)    ] magnetic double point group,
     using C_1 (1)    

     e(  1 -  1) =    -74.32002  eV     1   --> G_2            
     e(  2 -  2) =    -74.23210  eV     1   --> G_2            
     e(  3 -  3) =    -69.66328  eV     1   --> G_2            
     e(  4 -  4) =    -69.57571  eV     1   --> G_2            
     e(  5 -  5) =    -43.55224  eV     1   --> G_2            
     e(  6 -  6) =    -43.46430  eV     1   --> G_2            
     e(  7 -  7) =    -43.18891  eV     1   --> G_2            
     e(  8 -  8) =    -43.10141  eV     1   --> G_2            
     e(  9 -  9) =    -42.63678  eV     1   --> G_2            
     e( 10 - 10) =    -42.54880  eV     1   --> G_2            
     e( 11 - 11) =    -38.83073  eV     1   --> G_2            
     e( 12 - 12) =    -38.74334  eV     1   --> G_2            
     e( 13 - 13) =    -38.44423  eV     1   --> G_2            
     e( 14 - 14) =    -38.35673  eV     1   --> G_2            
     e( 15 - 15) =    -38.07971  eV     1   --> G_2            
     e( 16 - 16) =    -37.99226  eV     1   --> G_2            
     e( 17 - 17) =    -16.88553  eV     1   --> G_2            
     e( 18 - 18) =    -16.88528  eV     1   --> G_2            
     e( 19 - 19) =    -16.88248  eV     1   --> G_2            
     e( 20 - 20) =    -16.88230  eV     1   --> G_2            
     e( 21 - 21) =    -16.87856  eV     1   --> G_2            
     e( 22 - 22) =    -16.87838  eV     1   --> G_2            
     e( 23 - 23) =    -16.87391  eV     1   --> G_2            
     e( 24 - 24) =    -16.87367  eV     1   --> G_2            
     e( 25 - 25) =    -16.85010  eV     1   --> G_2            
     e( 26 - 26) =    -16.84991  eV     1   --> G_2            
     e( 27 - 27) =    -16.84203  eV     1   --> G_2            
     e( 28 - 28) =    -16.84179  eV     1   --> G_2            
     e( 29 - 29) =    -16.82777  eV     1   --> G_2            
     e( 30 - 30) =    -16.82754  eV     1   --> G_2            
     e( 31 - 31) =    -16.82147  eV     1   --> G_2            
     e( 32 - 32) =    -16.82128  eV     1   --> G_2            
     e( 33 - 33) =    -13.91298  eV     1   --> G_2            
     e( 34 - 34) =    -13.91273  eV     1   --> G_2            
     e( 35 - 35) =    -13.90392  eV     1   --> G_2            
     e( 36 - 36) =    -13.90376  eV     1   --> G_2            
     e( 37 - 37) =    -13.90104  eV     1   --> G_2            
     e( 38 - 38) =    -13.90085  eV     1   --> G_2            
     e( 39 - 39) =    -13.89326  eV     1   --> G_2            
     e( 40 - 40) =    -13.89310  eV     1   --> G_2            
     e( 41 - 41) =    -13.89018  eV     1   --> G_2            
     e( 42 - 42) =    -13.89001  eV     1   --> G_2            
     e( 43 - 43) =    -13.88436  eV     1   --> G_2            
     e( 44 - 44) =    -13.88411  eV     1   --> G_2            
     e( 45 - 45) =    -13.87725  eV     1   --> G_2            
     e( 46 - 46) =    -13.87705  eV     1   --> G_2            
     e( 47 - 47) =    -13.86154  eV     1   --> G_2            
     e( 48 - 48) =    -13.86131  eV     1   --> G_2            
     e( 49 - 49) =    -13.85809  eV     1   --> G_2            
     e( 50 - 50) =    -13.85792  eV     1   --> G_2            
     e( 51 - 51) =    -13.85243  eV     1   --> G_2            
     e( 52 - 52) =    -13.85227  eV     1   --> G_2            
     e( 53 - 53) =    -13.83829  eV     1   --> G_2            
     e( 54 - 54) =    -13.83806  eV     1   --> G_2            
     e( 55 - 55) =    -13.82879  eV     1   --> G_2            
     e( 56 - 56) =    -13.82860  eV     1   --> G_2            
     e( 57 - 57) =     -5.50617  eV     1   --> G_2            
     e( 58 - 58) =     -5.47536  eV     1   --> G_2            
     e( 59 - 59) =     -5.38029  eV     1   --> G_2            
     e( 60 - 60) =     -5.34357  eV     1   --> G_2            
     e( 61 - 61) =     -5.29857  eV     1   --> G_2            
     e( 62 - 62) =     -5.25151  eV     1   --> G_2            
     e( 63 - 63) =     -5.14622  eV     1   --> G_2            
     e( 64 - 64) =     -5.08469  eV     1   --> G_2            
     e( 65 - 65) =     -3.83965  eV     1   --> G_2            
     e( 66 - 66) =     -3.81484  eV     1   --> G_2            
     e( 67 - 67) =     -3.61454  eV     1   --> G_2            
     e( 68 - 68) =     -3.58336  eV     1   --> G_2            
     e( 69 - 69) =     -3.35142  eV     1   --> G_2            
     e( 70 - 70) =     -3.32258  eV     1   --> G_2            
     e( 71 - 71) =     -3.06097  eV     1   --> G_2            
     e( 72 - 72) =     -3.04474  eV     1   --> G_2            
     e( 73 - 73) =     -1.45482  eV     1   --> G_2            
     e( 74 - 74) =     -1.42991  eV     1   --> G_2            
     e( 75 - 75) =     -1.10604  eV     1   --> G_2            
     e( 76 - 76) =     -1.09087  eV     1   --> G_2            
     e( 77 - 77) =     -0.75741  eV     1   --> G_2            
     e( 78 - 78) =     -0.73981  eV     1   --> G_2            
     e( 79 - 79) =     -0.47374  eV     1   --> G_2            
     e( 80 - 80) =     -0.45361  eV     1   --> G_2            
     e( 81 - 81) =      3.32570  eV     1   --> G_2            
     e( 82 - 82) =      3.39575  eV     1   --> G_2            
     e( 83 - 83) =      3.55345  eV     1   --> G_2            
     e( 84 - 84) =      3.60845  eV     1   --> G_2            
     e( 85 - 85) =      3.63679  eV     1   --> G_2            
     e( 86 - 86) =      3.69439  eV     1   --> G_2            
     e( 87 - 87) =      4.01418  eV     1   --> G_2            
     e( 88 - 88) =      4.02704  eV     1   --> G_2            
     e( 89 - 89) =      4.09308  eV     1   --> G_2            
     e( 90 - 90) =      4.09997  eV     1   --> G_2            
     e( 91 - 91) =      4.11352  eV     1   --> G_2            
     e( 92 - 92) =      4.14854  eV     1   --> G_2            
     e( 93 - 93) =      4.56484  eV     1   --> G_2            
     e( 94 - 94) =      4.61828  eV     1   --> G_2            
     e( 95 - 95) =      4.68266  eV     1   --> G_2            
     e( 96 - 96) =      4.72611  eV     1   --> G_2            
     e( 97 - 97) =      5.22213  eV     1   --> G_2            
     e( 98 - 98) =      5.24389  eV     1   --> G_2            
     e( 99 - 99) =      5.27626  eV     1   --> G_2            
     e(100 -100) =      5.30956  eV     1   --> G_2            
     e(101 -101) =      5.52345  eV     1   --> G_2            
     e(102 -102) =      5.54450  eV     1   --> G_2            
     e(103 -103) =      5.71048  eV     1   --> G_2            
     e(104 -104) =      5.74812  eV     1   --> G_2            
     e(105 -105) =      5.76883  eV     1   --> G_2            
     e(106 -106) =      5.83149  eV     1   --> G_2            
     e(107 -107) =      6.01447  eV     1   --> G_2            
     e(108 -108) =      6.04584  eV     1   --> G_2            
     e(109 -109) =      6.11615  eV     1   --> G_2            
     e(110 -110) =      6.18786  eV     1   --> G_2            
     e(111 -111) =      6.22980  eV     1   --> G_2            
     e(112 -112) =      6.23999  eV     1   --> G_2            
     e(113 -113) =      6.37846  eV     1   --> G_2            
     e(114 -114) =      6.38026  eV     1   --> G_2            
     e(115 -115) =      6.38932  eV     1   --> G_2            
     e(116 -116) =      6.40895  eV     1   --> G_2            
     e(117 -117) =      6.42038  eV     1   --> G_2            
     e(118 -118) =      6.44659  eV     1   --> G_2            
     e(119 -119) =      6.66782  eV     1   --> G_2            
     e(120 -120) =      6.68488  eV     1   --> G_2            
     e(121 -121) =      6.73113  eV     1   --> G_2            
     e(122 -122) =      6.76121  eV     1   --> G_2            
     e(123 -123) =      6.82527  eV     1   --> G_2            
     e(124 -124) =      6.84893  eV     1   --> G_2            
     e(125 -125) =      7.01031  eV     1   --> G_2            
     e(126 -126) =      7.02450  eV     1   --> G_2            
     e(127 -127) =      7.03007  eV     1   --> G_2            
     e(128 -128) =      7.09076  eV     1   --> G_2            
     e(129 -129) =      7.19420  eV     1   --> G_2            
     e(130 -130) =      7.23392  eV     1   --> G_2            
     e(131 -131) =      7.30643  eV     1   --> G_2            
     e(132 -132) =      7.35075  eV     1   --> G_2            
     e(133 -133) =      7.54023  eV     1   --> G_2            
     e(134 -134) =      7.55737  eV     1   --> G_2            
     e(135 -135) =      7.62234  eV     1   --> G_2            
     e(136 -136) =      7.65118  eV     1   --> G_2            
     e(137 -137) =      7.70937  eV     1   --> G_2            
     e(138 -138) =      7.71936  eV     1   --> G_2            
     e(139 -139) =      7.85278  eV     1   --> G_2            
     e(140 -140) =      7.86096  eV     1   --> G_2            
     e(141 -141) =      7.91230  eV     1   --> G_2            
     e(142 -142) =      7.94574  eV     1   --> G_2            
     e(143 -143) =      8.06246  eV     1   --> G_2            
     e(144 -144) =      8.10424  eV     1   --> G_2            
     e(145 -145) =      8.17601  eV     1   --> G_2            
     e(146 -146) =      8.22728  eV     1   --> G_2            
     e(147 -147) =      8.81251  eV     1   --> G_2            
     e(148 -148) =      8.85839  eV     1   --> G_2            
     e(149 -149) =      8.89551  eV     1   --> G_2            
     e(150 -150) =      8.93488  eV     1   --> G_2            
     e(151 -151) =      9.02354  eV     1   --> G_2            
     e(152 -152) =      9.03804  eV     1   --> G_2            
     e(153 -153) =      9.12561  eV     1   --> G_2            
     e(154 -154) =      9.13906  eV     1   --> G_2            
     e(155 -155) =      9.21323  eV     1   --> G_2            
     e(156 -156) =      9.26198  eV     1   --> G_2            
     e(157 -157) =      9.35759  eV     1   --> G_2            
     e(158 -158) =      9.37203  eV     1   --> G_2            
     e(159 -159) =      9.39459  eV     1   --> G_2            
     e(160 -160) =      9.42053  eV     1   --> G_2            
     e(161 -161) =      9.51498  eV     1   --> G_2            
     e(162 -162) =      9.54389  eV     1   --> G_2            
     e(163 -163) =      9.57985  eV     1   --> G_2            
     e(164 -164) =      9.65888  eV     1   --> G_2            
     e(165 -165) =      9.87149  eV     1   --> G_2            
     e(166 -166) =      9.88958  eV     1   --> G_2            
     e(167 -167) =      9.91478  eV     1   --> G_2            
     e(168 -168) =      9.95556  eV     1   --> G_2            
     e(169 -169) =      9.99321  eV     1   --> G_2            
     e(170 -170) =     10.06752  eV     1   --> G_2            
     e(171 -171) =     10.49927  eV     1   --> G_2            
     e(172 -172) =     10.56593  eV     1   --> G_2            
     e(173 -173) =     11.41506  eV     1   --> G_2            
     e(174 -174) =     11.48049  eV     1   --> G_2            
     e(175 -175) =     11.69726  eV     1   --> G_2            
     e(176 -176) =     11.73890  eV     1   --> G_2            
     e(177 -177) =     11.77179  eV     1   --> G_2            
     e(178 -178) =     11.79544  eV     1   --> G_2            
     e(179 -179) =     12.49865  eV     1   --> G_2            
     e(180 -180) =     12.56842  eV     1   --> G_2            
     e(181 -181) =     12.71184  eV     1   --> G_2            
     e(182 -182) =     12.77349  eV     1   --> G_2            
     e(183 -183) =     12.84563  eV     1   --> G_2            
     e(184 -184) =     12.91394  eV     1   --> G_2            
     e(185 -185) =     13.21367  eV     1   --> G_2            
     e(186 -186) =     13.24839  eV     1   --> G_2            
     e(187 -187) =     13.29017  eV     1   --> G_2            
     e(188 -188) =     13.31839  eV     1   --> G_2            
     e(189 -189) =     13.32428  eV     1   --> G_2            
     e(190 -190) =     13.35357  eV     1   --> G_2            
     e(191 -191) =     13.40785  eV     1   --> G_2            
     e(192 -192) =     13.47891  eV     1   --> G_2            
     e(193 -193) =     13.50315  eV     1   --> G_2            
     e(194 -194) =     13.56379  eV     1   --> G_2            
     e(195 -195) =     13.68221  eV     1   --> G_2            
     e(196 -196) =     13.69882  eV     1   --> G_2            
     e(197 -197) =     13.73440  eV     1   --> G_2            
     e(198 -198) =     13.77124  eV     1   --> G_2            
     e(199 -199) =     13.79852  eV     1   --> G_2            
     e(200 -200) =     13.83695  eV     1   --> G_2            
     e(201 -201) =     13.95982  eV     1   --> G_2            
     e(202 -202) =     14.11237  eV     1   --> G_2            
     e(203 -203) =     14.14686  eV     1   --> G_2            
     e(204 -204) =     14.18815  eV     1   --> G_2            
     e(205 -205) =     14.19124  eV     1   --> G_2            
     e(206 -206) =     14.21469  eV     1   --> G_2            
     e(207 -207) =     14.25242  eV     1   --> G_2            
     e(208 -208) =     14.26723  eV     1   --> G_2            
     e(209 -209) =     14.37504  eV     1   --> G_2            
     e(210 -210) =     14.38062  eV     1   --> G_2            
     e(211 -211) =     14.50507  eV     1   --> G_2            
     e(212 -212) =     14.69836  eV     1   --> G_2            
     e(213 -213) =     14.73924  eV     1   --> G_2            
     e(214 -214) =     14.78503  eV     1   --> G_2            
     e(215 -215) =     14.89287  eV     1   --> G_2            
     e(216 -216) =     15.00347  eV     1   --> G_2            
     e(217 -217) =     15.00886  eV     1   --> G_2            
     e(218 -218) =     15.02937  eV     1   --> G_2            
     e(219 -219) =     15.14805  eV     1   --> G_2            
     e(220 -220) =     15.24089  eV     1   --> G_2            
     e(221 -221) =     15.35019  eV     1   --> G_2            
     e(222 -222) =     15.35785  eV     1   --> G_2            
     e(223 -223) =     15.40639  eV     1   --> G_2            
     e(224 -224) =     15.41122  eV     1   --> G_2            
     e(225 -225) =     15.53711  eV     1   --> G_2            
     e(226 -226) =     15.55473  eV     1   --> G_2            
     e(227 -227) =     15.60613  eV     1   --> G_2            
     e(228 -228) =     15.61132  eV     1   --> G_2            
     e(229 -229) =     15.64394  eV     1   --> G_2            
     e(230 -230) =     15.70742  eV     1   --> G_2            
     e(231 -231) =     15.72791  eV     1   --> G_2            
     e(232 -232) =     15.79598  eV     1   --> G_2            
     e(233 -233) =     15.92125  eV     1   --> G_2            
     e(234 -234) =     16.23623  eV     1   --> G_2            
     e(235 -235) =     16.25667  eV     1   --> G_2            
     e(236 -236) =     16.33139  eV     1   --> G_2            
     e(237 -237) =     16.35681  eV     1   --> G_2            
     e(238 -238) =     16.37654  eV     1   --> G_2            
     e(239 -239) =     16.44917  eV     1   --> G_2            
     e(240 -240) =     16.46903  eV     1   --> G_2            

 **************************************************************************

 **************************************************************************

                    xk=(   0.00000,   0.00000,   0.03013  )

     Band symmetry, C_2  (2)    [C_1 (1)    ] magnetic double point group,
     using C_1 (1)    

     e(  1 -  1) =    -74.32002  eV     1   --> G_2            
     e(  2 -  2) =    -74.23210  eV     1   --> G_2            
     e(  3 -  3) =    -69.66328  eV     1   --> G_2            
     e(  4 -  4) =    -69.57571  eV     1   --> G_2            
     e(  5 -  5) =    -43.55224  eV     1   --> G_2            
     e(  6 -  6) =    -43.46430  eV     1   --> G_2            
     e(  7 -  7) =    -43.18891  eV     1   --> G_2            
     e(  8 -  8) =    -43.10141  eV     1   --> G_2            
     e(  9 -  9) =    -42.63678  eV     1   --> G_2            
     e( 10 - 10) =    -42.54880  eV     1   --> G_2            
     e( 11 - 11) =    -38.83073  eV     1   --> G_2            
     e( 12 - 12) =    -38.74334  eV     1   --> G_2            
     e( 13 - 13) =    -38.44423  eV     1   --> G_2            
     e( 14 - 14) =    -38.35673  eV     1   --> G_2            
     e( 15 - 15) =    -38.07971  eV     1   --> G_2            
     e( 16 - 16) =    -37.99226  eV     1   --> G_2            
     e( 17 - 17) =    -16.88553  eV     1   --> G_2            
     e( 18 - 18) =    -16.88529  eV     1   --> G_2            
     e( 19 - 19) =    -16.88248  eV     1   --> G_2            
     e( 20 - 20) =    -16.88230  eV     1   --> G_2            
     e( 21 - 21) =    -16.87856  eV     1   --> G_2            
     e( 22 - 22) =    -16.87839  eV     1   --> G_2            
     e( 23 - 23) =    -16.87391  eV     1   --> G_2            
     e( 24 - 24) =    -16.87368  eV     1   --> G_2            
     e( 25 - 25) =    -16.85011  eV     1   --> G_2            
     e( 26 - 26) =    -16.84992  eV     1   --> G_2            
     e( 27 - 27) =    -16.84203  eV     1   --> G_2            
     e( 28 - 28) =    -16.84180  eV     1   --> G_2            
     e( 29 - 29) =    -16.82777  eV     1   --> G_2            
     e( 30 - 30) =    -16.82754  eV     1   --> G_2            
     e( 31 - 31) =    -16.82147  eV     1   --> G_2            
     e( 32 - 32) =    -16.82129  eV     1   --> G_2            
     e( 33 - 33) =    -13.91298  eV     1   --> G_2            
     e( 34 - 34) =    -13.91273  eV     1   --> G_2            
     e( 35 - 35) =    -13.90392  eV     1   --> G_2            
     e( 36 - 36) =    -13.90376  eV     1   --> G_2            
     e( 37 - 37) =    -13.90104  eV     1   --> G_2            
     e( 38 - 38) =    -13.90086  eV     1   --> G_2            
     e( 39 - 39) =    -13.89326  eV     1   --> G_2            
     e( 40 - 40) =    -13.89310  eV     1   --> G_2            
     e( 41 - 41) =    -13.89018  eV     1   --> G_2            
     e( 42 - 42) =    -13.89001  eV     1   --> G_2            
     e( 43 - 43) =    -13.88436  eV     1   --> G_2            
     e( 44 - 44) =    -13.88411  eV     1   --> G_2            
     e( 45 - 45) =    -13.87725  eV     1   --> G_2            
     e( 46 - 46) =    -13.87705  eV     1   --> G_2            
     e( 47 - 47) =    -13.86154  eV     1   --> G_2            
     e( 48 - 48) =    -13.86132  eV     1   --> G_2            
     e( 49 - 49) =    -13.85809  eV     1   --> G_2            
     e( 50 - 50) =    -13.85792  eV     1   --> G_2            
     e( 51 - 51) =    -13.85243  eV     1   --> G_2            
     e( 52 - 52) =    -13.85228  eV     1   --> G_2            
     e( 53 - 53) =    -13.83829  eV     1   --> G_2            
     e( 54 - 54) =    -13.83807  eV     1   --> G_2            
     e( 55 - 55) =    -13.82879  eV     1   --> G_2            
     e( 56 - 56) =    -13.82860  eV     1   --> G_2            
     e( 57 - 57) =     -5.50614  eV     1   --> G_2            
     e( 58 - 58) =     -5.47541  eV     1   --> G_2            
     e( 59 - 59) =     -5.38025  eV     1   --> G_2            
     e( 60 - 60) =     -5.34363  eV     1   --> G_2            
     e( 61 - 61) =     -5.29850  eV     1   --> G_2            
     e( 62 - 62) =     -5.25156  eV     1   --> G_2            
     e( 63 - 63) =     -5.14614  eV     1   --> G_2            
     e( 64 - 64) =     -5.08476  eV     1   --> G_2            
     e( 65 - 65) =     -3.83950  eV     1   --> G_2            
     e( 66 - 66) =     -3.81468  eV     1   --> G_2            
     e( 67 - 67) =     -3.61495  eV     1   --> G_2            
     e( 68 - 68) =     -3.58391  eV     1   --> G_2            
     e( 69 - 69) =     -3.35076  eV     1   --> G_2            
     e( 70 - 70) =     -3.32211  eV     1   --> G_2            
     e( 71 - 71) =     -3.06122  eV     1   --> G_2            
     e( 72 - 72) =     -3.04502  eV     1   --> G_2            
     e( 73 - 73) =     -1.45449  eV     1   --> G_2            
     e( 74 - 74) =     -1.42960  eV     1   --> G_2            
     e( 75 - 75) =     -1.10675  eV     1   --> G_2            
     e( 76 - 76) =     -1.09159  eV     1   --> G_2            
     e( 77 - 77) =     -0.75675  eV     1   --> G_2            
     e( 78 - 78) =     -0.73917  eV     1   --> G_2            
     e( 79 - 79) =     -0.47398  eV     1   --> G_2            
     e( 80 - 80) =     -0.45385  eV     1   --> G_2            
     e( 81 - 81) =      3.32572  eV     1   --> G_2            
     e( 82 - 82) =      3.39578  eV     1   --> G_2            
     e( 83 - 83) =      3.55344  eV     1   --> G_2            
     e( 84 - 84) =      3.60845  eV     1   --> G_2            
     e( 85 - 85) =      3.63678  eV     1   --> G_2            
     e( 86 - 86) =      3.69439  eV     1   --> G_2            
     e( 87 - 87) =      4.01418  eV     1   --> G_2            
     e( 88 - 88) =      4.02704  eV     1   --> G_2            
     e( 89 - 89) =      4.09304  eV     1   --> G_2            
     e( 90 - 90) =      4.09996  eV     1   --> G_2            
     e( 91 - 91) =      4.11352  eV     1   --> G_2            
     e( 92 - 92) =      4.14851  eV     1   --> G_2            
     e( 93 - 93) =      4.56415  eV     1   --> G_2            
     e( 94 - 94) =      4.61732  eV     1   --> G_2            
     e( 95 - 95) =      4.68407  eV     1   --> G_2            
     e( 96 - 96) =      4.72706  eV     1   --> G_2            
     e( 97 - 97) =      5.22045  eV     1   --> G_2            
     e( 98 - 98) =      5.23991  eV     1   --> G_2            
     e( 99 - 99) =      5.28005  eV     1   --> G_2            
     e(100 -100) =      5.31105  eV     1   --> G_2            
     e(101 -101) =      5.52337  eV     1   --> G_2            
     e(102 -102) =      5.54437  eV     1   --> G_2            
     e(103 -103) =      5.71043  eV     1   --> G_2            
     e(104 -104) =      5.74771  eV     1   --> G_2            
     e(105 -105) =      5.76930  eV     1   --> G_2            
     e(106 -106) =      5.83157  eV     1   --> G_2            
     e(107 -107) =      6.01428  eV     1   --> G_2            
     e(108 -108) =      6.04560  eV     1   --> G_2            
     e(109 -109) =      6.11615  eV     1   --> G_2            
     e(110 -110) =      6.18786  eV     1   --> G_2            
     e(111 -111) =      6.23006  eV     1   --> G_2            
     e(112 -112) =      6.24020  eV     1   --> G_2            
     e(113 -113) =      6.37834  eV     1   --> G_2            
     e(114 -114) =      6.38019  eV     1   --> G_2            
     e(115 -115) =      6.38928  eV     1   --> G_2            
     e(116 -116) =      6.40892  eV     1   --> G_2            
     e(117 -117) =      6.42041  eV     1   --> G_2            
     e(118 -118) =      6.44656  eV     1   --> G_2            
     e(119 -119) =      6.66786  eV     1   --> G_2            
     e(120 -120) =      6.68492  eV     1   --> G_2            
     e(121 -121) =      6.73110  eV     1   --> G_2            
     e(122 -122) =      6.76113  eV     1   --> G_2            
     e(123 -123) =      6.82543  eV     1   --> G_2            
     e(124 -124) =      6.84907  eV     1   --> G_2            
     e(125 -125) =      7.01002  eV     1   --> G_2            
     e(126 -126) =      7.02405  eV     1   --> G_2            
     e(127 -127) =      7.03047  eV     1   --> G_2            
     e(128 -128) =      7.09094  eV     1   --> G_2            
     e(129 -129) =      7.19426  eV     1   --> G_2            
     e(130 -130) =      7.23401  eV     1   --> G_2            
     e(131 -131) =      7.30634  eV     1   --> G_2            
     e(132 -132) =      7.35068  eV     1   --> G_2            
     e(133 -133) =      7.54000  eV     1   --> G_2            
     e(134 -134) =      7.55715  eV     1   --> G_2            
     e(135 -135) =      7.62252  eV     1   --> G_2            
     e(136 -136) =      7.65119  eV     1   --> G_2            
     e(137 -137) =      7.70940  eV     1   --> G_2            
     e(138 -138) =      7.71938  eV     1   --> G_2            
     e(139 -139) =      7.85272  eV     1   --> G_2            
     e(140 -140) =      7.86128  eV     1   --> G_2            
     e(141 -141) =      7.91258  eV     1   --> G_2            
     e(142 -142) =      7.94554  eV     1   --> G_2            
     e(143 -143) =      8.06256  eV     1   --> G_2            
     e(144 -144) =      8.10433  eV     1   --> G_2            
     e(145 -145) =      8.17582  eV     1   --> G_2            
     e(146 -146) =      8.22704  eV     1   --> G_2            
     e(147 -147) =      8.81259  eV     1   --> G_2            
     e(148 -148) =      8.85838  eV     1   --> G_2            
     e(149 -149) =      8.89557  eV     1   --> G_2            
     e(150 -150) =      8.93486  eV     1   --> G_2            
     e(151 -151) =      9.02356  eV     1   --> G_2            
     e(152 -152) =      9.03811  eV     1   --> G_2            
     e(153 -153) =      9.12553  eV     1   --> G_2            
     e(154 -154) =      9.13912  eV     1   --> G_2            
     e(155 -155) =      9.21312  eV     1   --> G_2            
     e(156 -156) =      9.26177  eV     1   --> G_2            
     e(157 -157) =      9.35613  eV     1   --> G_2            
     e(158 -158) =      9.37358  eV     1   --> G_2            
     e(159 -159) =      9.39415  eV     1   --> G_2            
     e(160 -160) =      9.42105  eV     1   --> G_2            
     e(161 -161) =      9.51543  eV     1   --> G_2            
     e(162 -162) =      9.54415  eV     1   --> G_2            
     e(163 -163) =      9.57973  eV     1   --> G_2            
     e(164 -164) =      9.65872  eV     1   --> G_2            
     e(165 -165) =      9.86900  eV     1   --> G_2            
     e(166 -166) =      9.88937  eV     1   --> G_2            
     e(167 -167) =      9.91600  eV     1   --> G_2            
     e(168 -168) =      9.95614  eV     1   --> G_2            
     e(169 -169) =      9.99372  eV     1   --> G_2            
     e(170 -170) =     10.06762  eV     1   --> G_2            
     e(171 -171) =     10.49920  eV     1   --> G_2            
     e(172 -172) =     10.56586  eV     1   --> G_2            
     e(173 -173) =     11.41509  eV     1   --> G_2            
     e(174 -174) =     11.48055  eV     1   --> G_2            
     e(175 -175) =     11.69710  eV     1   --> G_2            
     e(176 -176) =     11.73826  eV     1   --> G_2            
     e(177 -177) =     11.77237  eV     1   --> G_2            
     e(178 -178) =     11.79555  eV     1   --> G_2            
     e(179 -179) =     12.49882  eV     1   --> G_2            
     e(180 -180) =     12.56851  eV     1   --> G_2            
     e(181 -181) =     12.71183  eV     1   --> G_2            
     e(182 -182) =     12.77348  eV     1   --> G_2            
     e(183 -183) =     12.84563  eV     1   --> G_2            
     e(184 -184) =     12.91394  eV     1   --> G_2            
     e(185 -185) =     13.21346  eV     1   --> G_2            
     e(186 -186) =     13.24850  eV     1   --> G_2            
     e(187 -187) =     13.28963  eV     1   --> G_2            
     e(188 -188) =     13.31837  eV     1   --> G_2            
     e(189 -189) =     13.32353  eV     1   --> G_2            
     e(190 -190) =     13.35368  eV     1   --> G_2            
     e(191 -191) =     13.40778  eV     1   --> G_2            
     e(192 -192) =     13.47711  eV     1   --> G_2            
     e(193 -193) =     13.50564  eV     1   --> G_2            
     e(194 -194) =     13.56399  eV     1   --> G_2            
     e(195 -195) =     13.68238  eV     1   --> G_2            
     e(196 -196) =     13.69902  eV     1   --> G_2            
     e(197 -197) =     13.73331  eV     1   --> G_2            
     e(198 -198) =     13.77285  eV     1   --> G_2            
     e(199 -199) =     13.79951  eV     1   --> G_2            
     e(200 -200) =     13.83722  eV     1   --> G_2            
     e(201 -201) =     13.95918  eV     1   --> G_2            
     e(202 -202) =     14.11268  eV     1   --> G_2            
     e(203 -203) =     14.14448  eV     1   --> G_2            
     e(204 -204) =     14.18339  eV     1   --> G_2            
     e(205 -205) =     14.19018  eV     1   --> G_2            
     e(206 -206) =     14.22014  eV     1   --> G_2            
     e(207 -207) =     14.25290  eV     1   --> G_2            
     e(208 -208) =     14.26652  eV     1   --> G_2            
     e(209 -209) =     14.37701  eV     1   --> G_2            
     e(210 -210) =     14.38210  eV     1   --> G_2            
     e(211 -211) =     14.50419  eV     1   --> G_2            
     e(212 -212) =     14.69789  eV     1   --> G_2            
     e(213 -213) =     14.73860  eV     1   --> G_2            
     e(214 -214) =     14.78466  eV     1   --> G_2            
     e(215 -215) =     14.89096  eV     1   --> G_2            
     e(216 -216) =     15.00150  eV     1   --> G_2            
     e(217 -217) =     15.00855  eV     1   --> G_2            
     e(218 -218) =     15.02756  eV     1   --> G_2            
     e(219 -219) =     15.15081  eV     1   --> G_2            
     e(220 -220) =     15.24291  eV     1   --> G_2            
     e(221 -221) =     15.35154  eV     1   --> G_2            
     e(222 -222) =     15.35891  eV     1   --> G_2            
     e(223 -223) =     15.40677  eV     1   --> G_2            
     e(224 -224) =     15.41202  eV     1   --> G_2            
     e(225 -225) =     15.53764  eV     1   --> G_2            
     e(226 -226) =     15.55525  eV     1   --> G_2            
     e(227 -227) =     15.60672  eV     1   --> G_2            
     e(228 -228) =     15.61119  eV     1   --> G_2            
     e(229 -229) =     15.64470  eV     1   --> G_2            
     e(230 -230) =     15.70807  eV     1   --> G_2            
     e(231 -231) =     15.72858  eV     1   --> G_2            
     e(232 -232) =     15.79558  eV     1   --> G_2            
     e(233 -233) =     15.92174  eV     1   --> G_2            
     e(234 -234) =     16.23414  eV     1   --> G_2            
     e(235 -235) =     16.25480  eV     1   --> G_2            
     e(236 -236) =     16.32885  eV     1   --> G_2            
     e(237 -237) =     16.35371  eV     1   --> G_2            
     e(238 -238) =     16.37392  eV     1   --> G_2            
     e(239 -239) =     16.44172  eV     1   --> G_2            
     e(240 -240) =     16.46038  eV     1   --> G_2            

 **************************************************************************

 **************************************************************************

                    xk=(   0.00000,   0.00000,   0.04017  )

     Band symmetry, C_2  (2)    [C_1 (1)    ] magnetic double point group,
     using C_1 (1)    

     e(  1 -  1) =    -74.32002  eV     1   --> G_2            
     e(  2 -  2) =    -74.23210  eV     1   --> G_2            
     e(  3 -  3) =    -69.66328  eV     1   --> G_2            
     e(  4 -  4) =    -69.57571  eV     1   --> G_2            
     e(  5 -  5) =    -43.55224  eV     1   --> G_2            
     e(  6 -  6) =    -43.46430  eV     1   --> G_2            
     e(  7 -  7) =    -43.18891  eV     1   --> G_2            
     e(  8 -  8) =    -43.10141  eV     1   --> G_2            
     e(  9 -  9) =    -42.63678  eV     1   --> G_2            
     e( 10 - 10) =    -42.54880  eV     1   --> G_2            
     e( 11 - 11) =    -38.83073  eV     1   --> G_2            
     e( 12 - 12) =    -38.74334  eV     1   --> G_2            
     e( 13 - 13) =    -38.44423  eV     1   --> G_2            
     e( 14 - 14) =    -38.35673  eV     1   --> G_2            
     e( 15 - 15) =    -38.07971  eV     1   --> G_2            
     e( 16 - 16) =    -37.99226  eV     1   --> G_2            
     e( 17 - 17) =    -16.88553  eV     1   --> G_2            
     e( 18 - 18) =    -16.88529  eV     1   --> G_2            
     e( 19 - 19) =    -16.88248  eV     1   --> G_2            
     e( 20 - 20) =    -16.88230  eV     1   --> G_2            
     e( 21 - 21) =    -16.87856  eV     1   --> G_2            
     e( 22 - 22) =    -16.87839  eV     1   --> G_2            
     e( 23 - 23) =    -16.87391  eV     1   --> G_2            
     e( 24 - 24) =    -16.87368  eV     1   --> G_2            
     e( 25 - 25) =    -16.85011  eV     1   --> G_2            
     e( 26 - 26) =    -16.84992  eV     1   --> G_2            
     e( 27 - 27) =    -16.84203  eV     1   --> G_2            
     e( 28 - 28) =    -16.84180  eV     1   --> G_2            
     e( 29 - 29) =    -16.82777  eV     1   --> G_2            
     e( 30 - 30) =    -16.82754  eV     1   --> G_2            
     e( 31 - 31) =    -16.82147  eV     1   --> G_2            
     e( 32 - 32) =    -16.82129  eV     1   --> G_2            
     e( 33 - 33) =    -13.91298  eV     1   --> G_2            
     e( 34 - 34) =    -13.91273  eV     1   --> G_2            
     e( 35 - 35) =    -13.90392  eV     1   --> G_2            
     e( 36 - 36) =    -13.90376  eV     1   --> G_2            
     e( 37 - 37) =    -13.90104  eV     1   --> G_2            
     e( 38 - 38) =    -13.90086  eV     1   --> G_2            
     e( 39 - 39) =    -13.89326  eV     1   --> G_2            
     e( 40 - 40) =    -13.89310  eV     1   --> G_2            
     e( 41 - 41) =    -13.89018  eV     1   --> G_2            
     e( 42 - 42) =    -13.89001  eV     1   --> G_2            
     e( 43 - 43) =    -13.88436  eV     1   --> G_2            
     e( 44 - 44) =    -13.88411  eV     1   --> G_2            
     e( 45 - 45) =    -13.87725  eV     1   --> G_2            
     e( 46 - 46) =    -13.87705  eV     1   --> G_2            
     e( 47 - 47) =    -13.86154  eV     1   --> G_2            
     e( 48 - 48) =    -13.86132  eV     1   --> G_2            
     e( 49 - 49) =    -13.85809  eV     1   --> G_2            
     e( 50 - 50) =    -13.85792  eV     1   --> G_2            
     e( 51 - 51) =    -13.85243  eV     1   --> G_2            
     e( 52 - 52) =    -13.85228  eV     1   --> G_2            
     e( 53 - 53) =    -13.83829  eV     1   --> G_2            
     e( 54 - 54) =    -13.83807  eV     1   --> G_2            
     e( 55 - 55) =    -13.82879  eV     1   --> G_2            
     e( 56 - 56) =    -13.82860  eV     1   --> G_2            
     e( 57 - 57) =     -5.50610  eV     1   --> G_2            
     e( 58 - 58) =     -5.47547  eV     1   --> G_2            
     e( 59 - 59) =     -5.38020  eV     1   --> G_2            
     e( 60 - 60) =     -5.34370  eV     1   --> G_2            
     e( 61 - 61) =     -5.29841  eV     1   --> G_2            
     e( 62 - 62) =     -5.25164  eV     1   --> G_2            
     e( 63 - 63) =     -5.14602  eV     1   --> G_2            
     e( 64 - 64) =     -5.08486  eV     1   --> G_2            
     e( 65 - 65) =     -3.83928  eV     1   --> G_2            
     e( 66 - 66) =     -3.81445  eV     1   --> G_2            
     e( 67 - 67) =     -3.61552  eV     1   --> G_2            
     e( 68 - 68) =     -3.58469  eV     1   --> G_2            
     e( 69 - 69) =     -3.34984  eV     1   --> G_2            
     e( 70 - 70) =     -3.32145  eV     1   --> G_2            
     e( 71 - 71) =     -3.06158  eV     1   --> G_2            
     e( 72 - 72) =     -3.04541  eV     1   --> G_2            
     e( 73 - 73) =     -1.45403  eV     1   --> G_2            
     e( 74 - 74) =     -1.42916  eV     1   --> G_2            
     e( 75 - 75) =     -1.10773  eV     1   --> G_2            
     e( 76 - 76) =     -1.09259  eV     1   --> G_2            
     e( 77 - 77) =     -0.75583  eV     1   --> G_2            
     e( 78 - 78) =     -0.73827  eV     1   --> G_2            
     e( 79 - 79) =     -0.47431  eV     1   --> G_2            
     e( 80 - 80) =     -0.45419  eV     1   --> G_2            
     e( 81 - 81) =      3.32576  eV     1   --> G_2            
     e( 82 - 82) =      3.39583  eV     1   --> G_2            
     e( 83 - 83) =      3.55343  eV     1   --> G_2            
     e( 84 - 84) =      3.60845  eV     1   --> G_2            
     e( 85 - 85) =      3.63677  eV     1   --> G_2            
     e( 86 - 86) =      3.69439  eV     1   --> G_2            
     e( 87 - 87) =      4.01418  eV     1   --> G_2            
     e( 88 - 88) =      4.02704  eV     1   --> G_2            
     e( 89 - 89) =      4.09298  eV     1   --> G_2            
     e( 90 - 90) =      4.09995  eV     1   --> G_2            
     e( 91 - 91) =      4.11352  eV     1   --> G_2            
     e( 92 - 92) =      4.14847  eV     1   --> G_2            
     e( 93 - 93) =      4.56321  eV     1   --> G_2            
     e( 94 - 94) =      4.61604  eV     1   --> G_2            
     e( 95 - 95) =      4.68598  eV     1   --> G_2            
     e( 96 - 96) =      4.72838  eV     1   --> G_2            
     e( 97 - 97) =      5.21818  eV     1   --> G_2            
     e( 98 - 98) =      5.23537  eV     1   --> G_2            
     e( 99 - 99) =      5.28434  eV     1   --> G_2            
     e(100 -100) =      5.31304  eV     1   --> G_2            
     e(101 -101) =      5.52325  eV     1   --> G_2            
     e(102 -102) =      5.54419  eV     1   --> G_2            
     e(103 -103) =      5.71037  eV     1   --> G_2            
     e(104 -104) =      5.74715  eV     1   --> G_2            
     e(105 -105) =      5.76993  eV     1   --> G_2            
     e(106 -106) =      5.83168  eV     1   --> G_2            
     e(107 -107) =      6.01400  eV     1   --> G_2            
     e(108 -108) =      6.04528  eV     1   --> G_2            
     e(109 -109) =      6.11615  eV     1   --> G_2            
     e(110 -110) =      6.18786  eV     1   --> G_2            
     e(111 -111) =      6.23042  eV     1   --> G_2            
     e(112 -112) =      6.24049  eV     1   --> G_2            
     e(113 -113) =      6.37817  eV     1   --> G_2            
     e(114 -114) =      6.38009  eV     1   --> G_2            
     e(115 -115) =      6.38923  eV     1   --> G_2            
     e(116 -116) =      6.40888  eV     1   --> G_2            
     e(117 -117) =      6.42044  eV     1   --> G_2            
     e(118 -118) =      6.44652  eV     1   --> G_2            
     e(119 -119) =      6.66793  eV     1   --> G_2            
     e(120 -120) =      6.68496  eV     1   --> G_2            
     e(121 -121) =      6.73106  eV     1   --> G_2            
     e(122 -122) =      6.76103  eV     1   --> G_2            
     e(123 -123) =      6.82565  eV     1   --> G_2            
     e(124 -124) =      6.84928  eV     1   --> G_2            
     e(125 -125) =      7.00961  eV     1   --> G_2            
     e(126 -126) =      7.02349  eV     1   --> G_2            
     e(127 -127) =      7.03096  eV     1   --> G_2            
     e(128 -128) =      7.09120  eV     1   --> G_2            
     e(129 -129) =      7.19434  eV     1   --> G_2            
     e(130 -130) =      7.23414  eV     1   --> G_2            
     e(131 -131) =      7.30621  eV     1   --> G_2            
     e(132 -132) =      7.35059  eV     1   --> G_2            
     e(133 -133) =      7.53967  eV     1   --> G_2            
     e(134 -134) =      7.55684  eV     1   --> G_2            
     e(135 -135) =      7.62278  eV     1   --> G_2            
     e(136 -136) =      7.65121  eV     1   --> G_2            
     e(137 -137) =      7.70944  eV     1   --> G_2            
     e(138 -138) =      7.71939  eV     1   --> G_2            
     e(139 -139) =      7.85264  eV     1   --> G_2            
     e(140 -140) =      7.86172  eV     1   --> G_2            
     e(141 -141) =      7.91296  eV     1   --> G_2            
     e(142 -142) =      7.94527  eV     1   --> G_2            
     e(143 -143) =      8.06270  eV     1   --> G_2            
     e(144 -144) =      8.10445  eV     1   --> G_2            
     e(145 -145) =      8.17556  eV     1   --> G_2            
     e(146 -146) =      8.22671  eV     1   --> G_2            
     e(147 -147) =      8.81270  eV     1   --> G_2            
     e(148 -148) =      8.85838  eV     1   --> G_2            
     e(149 -149) =      8.89565  eV     1   --> G_2            
     e(150 -150) =      8.93484  eV     1   --> G_2            
     e(151 -151) =      9.02360  eV     1   --> G_2            
     e(152 -152) =      9.03821  eV     1   --> G_2            
     e(153 -153) =      9.12541  eV     1   --> G_2            
     e(154 -154) =      9.13920  eV     1   --> G_2            
     e(155 -155) =      9.21298  eV     1   --> G_2            
     e(156 -156) =      9.26148  eV     1   --> G_2            
     e(157 -157) =      9.35445  eV     1   --> G_2            
     e(158 -158) =      9.37536  eV     1   --> G_2            
     e(159 -159) =      9.39357  eV     1   --> G_2            
     e(160 -160) =      9.42178  eV     1   --> G_2            
     e(161 -161) =      9.51607  eV     1   --> G_2            
     e(162 -162) =      9.54451  eV     1   --> G_2            
     e(163 -163) =      9.57956  eV     1   --> G_2            
     e(164 -164) =      9.65850  eV     1   --> G_2            
     e(165 -165) =      9.86595  eV     1   --> G_2            
     e(166 -166) =      9.88871  eV     1   --> G_2            
     e(167 -167) =      9.91769  eV     1   --> G_2            
     e(168 -168) =      9.95690  eV     1   --> G_2            
     e(169 -169) =      9.99443  eV     1   --> G_2            
     e(170 -170) =     10.06776  eV     1   --> G_2            
     e(171 -171) =     10.49911  eV     1   --> G_2            
     e(172 -172) =     10.56577  eV     1   --> G_2            
     e(173 -173) =     11.41513  eV     1   --> G_2            
     e(174 -174) =     11.48062  eV     1   --> G_2            
     e(175 -175) =     11.69689  eV     1   --> G_2            
     e(176 -176) =     11.73739  eV     1   --> G_2            
     e(177 -177) =     11.77315  eV     1   --> G_2            
     e(178 -178) =     11.79571  eV     1   --> G_2            
     e(179 -179) =     12.49906  eV     1   --> G_2            
     e(180 -180) =     12.56864  eV     1   --> G_2            
     e(181 -181) =     12.71182  eV     1   --> G_2            
     e(182 -182) =     12.77348  eV     1   --> G_2            
     e(183 -183) =     12.84562  eV     1   --> G_2            
     e(184 -184) =     12.91394  eV     1   --> G_2            
     e(185 -185) =     13.21317  eV     1   --> G_2            
     e(186 -186) =     13.24865  eV     1   --> G_2            
     e(187 -187) =     13.28887  eV     1   --> G_2            
     e(188 -188) =     13.31830  eV     1   --> G_2            
     e(189 -189) =     13.32253  eV     1   --> G_2            
     e(190 -190) =     13.35382  eV     1   --> G_2            
     e(191 -191) =     13.40769  eV     1   --> G_2            
     e(192 -192) =     13.47507  eV     1   --> G_2            
     e(193 -193) =     13.50864  eV     1   --> G_2            
     e(194 -194) =     13.56427  eV     1   --> G_2            
     e(195 -195) =     13.68260  eV     1   --> G_2            
     e(196 -196) =     13.69931  eV     1   --> G_2            
     e(197 -197) =     13.73203  eV     1   --> G_2            
     e(198 -198) =     13.77482  eV     1   --> G_2            
     e(199 -199) =     13.80095  eV     1   --> G_2            
     e(200 -200) =     13.83761  eV     1   --> G_2            
     e(201 -201) =     13.95831  eV     1   --> G_2            
     e(202 -202) =     14.11305  eV     1   --> G_2            
     e(203 -203) =     14.14136  eV     1   --> G_2            
     e(204 -204) =     14.17813  eV     1   --> G_2            
     e(205 -205) =     14.18921  eV     1   --> G_2            
     e(206 -206) =     14.22563  eV     1   --> G_2            
     e(207 -207) =     14.25321  eV     1   --> G_2            
     e(208 -208) =     14.26610  eV     1   --> G_2            
     e(209 -209) =     14.37967  eV     1   --> G_2            
     e(210 -210) =     14.38413  eV     1   --> G_2            
     e(211 -211) =     14.50297  eV     1   --> G_2            
     e(212 -212) =     14.69723  eV     1   --> G_2            
[...]
     e(188 -188) =     13.75086  eV     1   --> G_2            
     e(189 -189) =     14.26646  eV     1   --> G_2            
     e(190 -190) =     14.29495  eV     1   --> G_2            
     e(191 -191) =     14.42847  eV     1   --> G_2            
     e(192 -192) =     14.51712  eV     1   --> G_2            
     e(193 -193) =     14.71924  eV     1   --> G_2            
     e(194 -194) =     14.73609  eV     1   --> G_2            
     e(195 -195) =     14.88513  eV     1   --> G_2            
     e(196 -196) =     14.95935  eV     1   --> G_2            
     e(197 -197) =     15.52053  eV     1   --> G_2            
     e(198 -198) =     15.57371  eV     1   --> G_2            
     e(199 -199) =     15.68778  eV     1   --> G_2            
     e(200 -200) =     15.73234  eV     1   --> G_2            
     e(201 -201) =     16.04300  eV     1   --> G_2            
     e(202 -202) =     16.06907  eV     1   --> G_2            
     e(203 -203) =     16.24355  eV     1   --> G_2            
     e(204 -204) =     16.27640  eV     1   --> G_2            
     e(205 -205) =     16.43544  eV     1   --> G_2            
     e(206 -206) =     16.47901  eV     1   --> G_2            
     e(207 -207) =     16.54280  eV     1   --> G_2            
     e(208 -208) =     16.57007  eV     1   --> G_2            
     e(209 -209) =     16.68812  eV     1   --> G_2            
     e(210 -210) =     16.72913  eV     1   --> G_2            
     e(211 -211) =     16.82400  eV     1   --> G_2            
     e(212 -212) =     16.85796  eV     1   --> G_2            
     e(213 -213) =     17.03011  eV     1   --> G_2            
     e(214 -214) =     17.09343  eV     1   --> G_2            
     e(215 -215) =     17.11600  eV     1   --> G_2            
     e(216 -216) =     17.16804  eV     1   --> G_2            
     e(217 -217) =     17.41869  eV     1   --> G_2            
     e(218 -218) =     17.56251  eV     1   --> G_2            
     e(219 -219) =     17.62177  eV     1   --> G_2            
     e(220 -220) =     17.74414  eV     1   --> G_2            
     e(221 -221) =     17.78173  eV     1   --> G_2            
     e(222 -222) =     17.86692  eV     1   --> G_2            
     e(223 -223) =     17.90155  eV     1   --> G_2            
     e(224 -224) =     17.94028  eV     1   --> G_2            
     e(225 -225) =     18.00857  eV     1   --> G_2            
     e(226 -226) =     18.03085  eV     1   --> G_2            
     e(227 -227) =     18.05519  eV     1   --> G_2            
     e(228 -228) =     18.09086  eV     1   --> G_2            
     e(229 -229) =     18.12515  eV     1   --> G_2            
     e(230 -230) =     18.13805  eV     1   --> G_2            
     e(231 -231) =     18.17182  eV     1   --> G_2            
     e(232 -232) =     18.21884  eV     1   --> G_2            
     e(233 -233) =     18.26159  eV     1   --> G_2            
     e(234 -234) =     18.28156  eV     1   --> G_2            
     e(235 -235) =     18.32827  eV     1   --> G_2            
     e(236 -236) =     18.34874  eV     1   --> G_2            
     e(237 -237) =     18.37413  eV     1   --> G_2            
     e(238 -238) =     18.43120  eV     1   --> G_2            
     e(239 -239) =     18.46566  eV     1   --> G_2            
     e(240 -240) =     18.58372  eV     1   --> G_2            

 **************************************************************************

 **************************************************************************

                    xk=(   3.16116,  -1.82510,   0.16737  )

     the magnetic double point group is C_i (-1)    [C_i (-1)   ]
     using the double point group C_i (-1)   
     there are  4 classes and  2 irreducible representations
     the character table:

       E     -E    i     -i   
                              
G_2+   1.00 -1.00  1.00 -1.00
G_2-   1.00 -1.00 -1.00  1.00

     the symmetry operations in each class and the name of the first element:

     E             1
                                                                 
     -E           -1
                                                                 
     i             2
                                                                 
     -i           -2
                                                                 

     Band symmetry, C_i (-1)    [C_i (-1)   ] magnetic double point group,
     using C_i (-1)   

     e(  1 -  1) =    -74.32001  eV     1   --> G_2+           
     e(  2 -  2) =    -74.23208  eV     1   --> G_2-           
     e(  3 -  3) =    -69.66326  eV     1   --> G_2+           
     e(  4 -  4) =    -69.57569  eV     1   --> G_2-           
     e(  5 -  5) =    -43.55257  eV     1   --> G_2-           
     e(  6 -  6) =    -43.46464  eV     1   --> G_2+           
     e(  7 -  7) =    -43.18882  eV     1   --> G_2-           
     e(  8 -  8) =    -43.10133  eV     1   --> G_2+           
     e(  9 -  9) =    -42.63717  eV     1   --> G_2-           
     e( 10 - 10) =    -42.54918  eV     1   --> G_2+           
     e( 11 - 11) =    -38.83125  eV     1   --> G_2-           
     e( 12 - 12) =    -38.74385  eV     1   --> G_2+           
     e( 13 - 13) =    -38.44408  eV     1   --> G_2-           
     e( 14 - 14) =    -38.35659  eV     1   --> G_2+           
     e( 15 - 15) =    -38.08029  eV     1   --> G_2-           
     e( 16 - 16) =    -37.99284  eV     1   --> G_2+           
     e( 17 - 18) =    -16.88610  eV     2   --> G_2+           
     e( 17 - 18) =    -16.88610  eV     2   --> G_2-           
     e( 19 - 20) =    -16.87986  eV     2   --> G_2+           
     e( 19 - 20) =    -16.87986  eV     2   --> G_2-           
     e( 21 - 22) =    -16.87544  eV     2   --> G_2+           
     e( 21 - 22) =    -16.87544  eV     2   --> G_2-           
     e( 23 - 24) =    -16.87355  eV     2   --> G_2+           
     e( 23 - 24) =    -16.87355  eV     2   --> G_2-           
     e( 25 - 26) =    -16.84888  eV     2   --> G_2+           
     e( 25 - 26) =    -16.84888  eV     2   --> G_2-           
     e( 27 - 28) =    -16.84097  eV     2   --> G_2+           
     e( 27 - 28) =    -16.84097  eV     2   --> G_2-           
     e( 29 - 30) =    -16.82694  eV     2   --> G_2+           
     e( 29 - 30) =    -16.82694  eV     2   --> G_2-           
     e( 31 - 32) =    -16.81911  eV     2   --> G_2+           
     e( 31 - 32) =    -16.81911  eV     2   --> G_2-           
     e( 33 - 34) =    -13.91470  eV     2   --> G_2+           
     e( 33 - 34) =    -13.91470  eV     2   --> G_2-           
     e( 35 - 36) =    -13.90608  eV     2   --> G_2+           
     e( 35 - 36) =    -13.90608  eV     2   --> G_2-           
     e( 37 - 38) =    -13.90034  eV     2   --> G_2+           
     e( 37 - 38) =    -13.90034  eV     2   --> G_2-           
     e( 39 - 40) =    -13.89363  eV     2   --> G_2+           
     e( 39 - 40) =    -13.89363  eV     2   --> G_2-           
     e( 41 - 42) =    -13.88398  eV     2   --> G_2+           
     e( 41 - 42) =    -13.88398  eV     2   --> G_2-           
     e( 43 - 44) =    -13.88290  eV     2   --> G_2+           
     e( 43 - 44) =    -13.88290  eV     2   --> G_2-           
     e( 45 - 46) =    -13.87792  eV     2   --> G_2+           
     e( 45 - 46) =    -13.87792  eV     2   --> G_2-           
     e( 47 - 48) =    -13.86286  eV     2   --> G_2+           
     e( 47 - 48) =    -13.86286  eV     2   --> G_2-           
     e( 49 - 49) =    -13.85121  eV     1   -->   ?
     e( 50 - 50) =    -13.85110  eV     1   -->   ?
     e( 51 - 51) =    -13.84732  eV     1   -->   ?
     e( 52 - 52) =    -13.84720  eV     1   -->   ?
     e( 53 - 54) =    -13.83262  eV     2   -->   ?
     e( 55 - 56) =    -13.83044  eV     2   -->   ?
     e( 57 - 57) =     -3.82954  eV     1   --> G_2-           
     e( 58 - 58) =     -3.82228  eV     1   --> G_2+           
     e( 59 - 59) =     -3.78425  eV     1   --> G_2+           
     e( 60 - 60) =     -3.77838  eV     1   --> G_2-           
     e( 61 - 61) =     -3.71852  eV     1   --> G_2-           
     e( 62 - 62) =     -3.71277  eV     1   --> G_2+           
     e( 63 - 63) =     -3.65676  eV     1   --> G_2+           
     e( 64 - 64) =     -3.65273  eV     1   --> G_2-           
     e( 65 - 65) =     -3.19312  eV     1   --> G_2-           
     e( 66 - 66) =     -3.16405  eV     1   --> G_2-           
     e( 67 - 67) =     -3.15332  eV     1   --> G_2+           
     e( 68 - 68) =     -3.13469  eV     1   --> G_2+           
     e( 69 - 69) =     -3.04822  eV     1   --> G_2+           
     e( 70 - 70) =     -3.02408  eV     1   --> G_2-           
     e( 71 - 71) =     -3.01315  eV     1   --> G_2+           
     e( 72 - 72) =     -2.97093  eV     1   --> G_2-           
     e( 73 - 73) =     -2.34751  eV     1   --> G_2+           
     e( 74 - 74) =     -2.34456  eV     1   --> G_2-           
     e( 75 - 75) =     -2.30569  eV     1   --> G_2-           
     e( 76 - 76) =     -2.30389  eV     1   --> G_2+           
     e( 77 - 77) =     -2.15414  eV     1   --> G_2+           
     e( 78 - 78) =     -2.15173  eV     1   --> G_2-           
     e( 79 - 79) =     -2.09014  eV     1   --> G_2+           
     e( 80 - 80) =     -2.08781  eV     1   --> G_2-           
     e( 81 - 81) =      2.44960  eV     1   --> G_2+           
     e( 82 - 82) =      2.47565  eV     1   --> G_2-           
     e( 83 - 83) =      2.59254  eV     1   -->   ?
     e( 84 - 84) =      2.59288  eV     1   -->   ?
     e( 85 - 85) =      2.80965  eV     1   --> G_2-           
     e( 86 - 86) =      2.82962  eV     1   --> G_2+           
     e( 87 - 87) =      2.96398  eV     1   --> G_2+           
     e( 88 - 88) =      3.00043  eV     1   --> G_2-           
     e( 89 - 89) =      3.25756  eV     1   --> G_2+           
     e( 90 - 90) =      3.29906  eV     1   --> G_2-           
     e( 91 - 91) =      3.53489  eV     1   --> G_2+           
     e( 92 - 92) =      3.57868  eV     1   --> G_2-           
     e( 93 - 93) =      3.67166  eV     1   --> G_2+           
     e( 94 - 94) =      3.74018  eV     1   --> G_2-           
     e( 95 - 95) =      3.93939  eV     1   --> G_2-           
     e( 96 - 96) =      3.95901  eV     1   --> G_2+           
     e( 97 - 97) =      4.02430  eV     1   --> G_2+           
     e( 98 - 98) =      4.04099  eV     1   --> G_2-           
     e( 99 - 99) =      4.06427  eV     1   --> G_2+           
     e(100 -100) =      4.09451  eV     1   --> G_2-           
     e(101 -101) =      4.13862  eV     1   --> G_2+           
     e(102 -102) =      4.16615  eV     1   --> G_2+           
     e(103 -103) =      4.19639  eV     1   --> G_2-           
     e(104 -104) =      4.23863  eV     1   --> G_2-           
     e(105 -105) =      4.36695  eV     1   --> G_2+           
     e(106 -106) =      4.42588  eV     1   --> G_2-           
     e(107 -107) =      4.52674  eV     1   --> G_2+           
     e(108 -108) =      4.58385  eV     1   --> G_2-           
     e(109 -109) =      4.66621  eV     1   --> G_2-           
     e(110 -110) =      4.69234  eV     1   --> G_2+           
     e(111 -111) =      4.72504  eV     1   --> G_2-           
     e(112 -112) =      4.73830  eV     1   --> G_2+           
     e(113 -113) =      4.82251  eV     1   --> G_2-           
     e(114 -114) =      4.83842  eV     1   --> G_2+           
     e(115 -115) =      4.92713  eV     1   --> G_2-           
     e(116 -116) =      4.93752  eV     1   --> G_2+           
     e(117 -117) =      4.99103  eV     1   --> G_2+           
     e(118 -118) =      4.99626  eV     1   --> G_2-           
     e(119 -119) =      5.38409  eV     1   --> G_2+           
     e(120 -120) =      5.39692  eV     1   --> G_2-           
     e(121 -121) =      5.48530  eV     1   --> G_2-           
     e(122 -122) =      5.51360  eV     1   --> G_2+           
     e(123 -123) =      5.86704  eV     1   --> G_2-           
     e(124 -124) =      5.88269  eV     1   --> G_2-           
     e(125 -125) =      5.88472  eV     1   --> G_2+           
     e(126 -126) =      5.92613  eV     1   --> G_2+           
     e(127 -127) =      6.05043  eV     1   --> G_2-           
     e(128 -128) =      6.08056  eV     1   --> G_2+           
     e(129 -129) =      6.22497  eV     1   --> G_2+           
     e(130 -130) =      6.27460  eV     1   --> G_2-           
     e(131 -131) =      6.45464  eV     1   --> G_2-           
     e(132 -132) =      6.47163  eV     1   --> G_2+           
     e(133 -133) =      6.71035  eV     1   --> G_2+           
     e(134 -134) =      6.72454  eV     1   --> G_2-           
     e(135 -135) =      7.12071  eV     1   --> G_2+           
     e(136 -136) =      7.13785  eV     1   --> G_2-           
     e(137 -137) =      7.25637  eV     1   --> G_2+           
     e(138 -138) =      7.31525  eV     1   --> G_2-           
     e(139 -139) =      8.22635  eV     1   --> G_2+           
     e(140 -140) =      8.25147  eV     1   --> G_2-           
     e(141 -141) =      8.42382  eV     1   --> G_2+           
     e(142 -142) =      8.44327  eV     1   --> G_2-           
     e(143 -143) =      8.60505  eV     1   --> G_2+           
     e(144 -144) =      8.67668  eV     1   --> G_2-           
     e(145 -145) =      8.81635  eV     1   --> G_2-           
     e(146 -146) =      8.81737  eV     1   --> G_2+           
     e(147 -147) =      8.88817  eV     1   --> G_2+           
     e(148 -148) =      8.91384  eV     1   --> G_2-           
     e(149 -149) =      9.04763  eV     1   --> G_2+           
     e(150 -150) =      9.09271  eV     1   --> G_2-           
     e(151 -151) =      9.21143  eV     1   --> G_2-           
     e(152 -152) =      9.21905  eV     1   --> G_2+           
     e(153 -153) =      9.31198  eV     1   --> G_2+           
     e(154 -154) =      9.37846  eV     1   --> G_2-           
     e(155 -155) =      9.41966  eV     1   --> G_2+           
     e(156 -156) =      9.47215  eV     1   --> G_2-           
     e(157 -157) =      9.65693  eV     1   --> G_2+           
     e(158 -158) =      9.70960  eV     1   --> G_2-           
     e(159 -159) =      9.80458  eV     1   --> G_2+           
     e(160 -160) =      9.81286  eV     1   --> G_2-           
     e(161 -161) =     10.03530  eV     1   --> G_2-           
     e(162 -162) =     10.05070  eV     1   --> G_2+           
     e(163 -163) =     10.11249  eV     1   --> G_2-           
     e(164 -164) =     10.12059  eV     1   --> G_2+           
     e(165 -165) =     10.54303  eV     1   --> G_2-           
     e(166 -166) =     10.54744  eV     1   --> G_2+           
     e(167 -167) =     10.64661  eV     1   --> G_2+           
     e(168 -168) =     10.69266  eV     1   --> G_2-           
     e(169 -169) =     10.83367  eV     1   --> G_2+           
     e(170 -170) =     10.85659  eV     1   --> G_2-           
     e(171 -171) =     11.09596  eV     1   --> G_2+           
     e(172 -172) =     11.11782  eV     1   --> G_2-           
     e(173 -173) =     11.50338  eV     1   --> G_2+           
     e(174 -174) =     11.54489  eV     1   --> G_2-           
     e(175 -175) =     11.59388  eV     1   --> G_2-           
     e(176 -176) =     11.61567  eV     1   --> G_2+           
     e(177 -177) =     11.70147  eV     1   --> G_2-           
     e(178 -178) =     11.72632  eV     1   --> G_2+           
     e(179 -179) =     11.98636  eV     1   --> G_2+           
     e(180 -180) =     12.02812  eV     1   --> G_2-           
     e(181 -181) =     12.53510  eV     1   --> G_2+           
     e(182 -182) =     12.60655  eV     1   --> G_2-           
     e(183 -183) =     13.14732  eV     1   --> G_2+           
     e(184 -184) =     13.17642  eV     1   --> G_2-           
     e(185 -185) =     13.50701  eV     1   --> G_2+           
     e(186 -186) =     13.52055  eV     1   --> G_2-           
     e(187 -187) =     13.73161  eV     1   --> G_2+           
     e(188 -188) =     13.73445  eV     1   --> G_2-           
     e(189 -189) =     14.26864  eV     1   --> G_2-           
     e(190 -190) =     14.29663  eV     1   --> G_2+           
     e(191 -191) =     14.42586  eV     1   --> G_2-           
     e(192 -192) =     14.51703  eV     1   --> G_2+           
     e(193 -193) =     14.72391  eV     1   --> G_2-           
     e(194 -194) =     14.73028  eV     1   --> G_2+           
     e(195 -195) =     14.88481  eV     1   --> G_2-           
     e(196 -196) =     14.95902  eV     1   --> G_2+           
     e(197 -197) =     15.52626  eV     1   --> G_2-           
     e(198 -198) =     15.57887  eV     1   --> G_2+           
     e(199 -199) =     15.71893  eV     1   --> G_2-           
     e(200 -200) =     15.72054  eV     1   --> G_2+           
     e(201 -201) =     16.04048  eV     1   --> G_2-           
     e(202 -202) =     16.07017  eV     1   --> G_2+           
     e(203 -203) =     16.25146  eV     1   --> G_2-           
     e(204 -204) =     16.26246  eV     1   --> G_2+           
     e(205 -205) =     16.46166  eV     1   --> G_2+           
     e(206 -206) =     16.47727  eV     1   --> G_2-           
     e(207 -207) =     16.55951  eV     1   --> G_2-           
     e(208 -208) =     16.57461  eV     1   --> G_2+           
     e(209 -209) =     16.72302  eV     1   --> G_2+           
     e(210 -210) =     16.72656  eV     1   --> G_2-           
     e(211 -211) =     16.81665  eV     1   --> G_2-           
     e(212 -212) =     16.86023  eV     1   --> G_2+           
     e(213 -213) =     17.03724  eV     1   --> G_2+           
     e(214 -214) =     17.09375  eV     1   --> G_2-           
     e(215 -215) =     17.12239  eV     1   --> G_2-           
     e(216 -216) =     17.16051  eV     1   --> G_2+           
     e(217 -217) =     17.51387  eV     1   --> G_2+           
     e(218 -218) =     17.52956  eV     1   --> G_2-           
     e(219 -219) =     17.68395  eV     1   --> G_2+           
     e(220 -220) =     17.70626  eV     1   --> G_2-           
     e(221 -221) =     17.83138  eV     1   --> G_2+           
     e(222 -222) =     17.85369  eV     1   --> G_2-           
     e(223 -223) =     17.91668  eV     1   --> G_2+           
     e(224 -224) =     17.93333  eV     1   --> G_2-           
     e(225 -225) =     18.03531  eV     1   --> G_2-           
     e(226 -226) =     18.06076  eV     1   --> G_2-           
     e(227 -227) =     18.07123  eV     1   --> G_2+           
     e(228 -228) =     18.10454  eV     1   --> G_2+           
     e(229 -229) =     18.13627  eV     1   --> G_2+           
     e(230 -230) =     18.14437  eV     1   --> G_2-           
     e(231 -231) =     18.18036  eV     1   --> G_2-           
     e(232 -232) =     18.19529  eV     1   --> G_2+           
     e(233 -233) =     18.27185  eV     1   --> G_2-           
     e(234 -234) =     18.30413  eV     1   --> G_2+           
     e(235 -235) =     18.33945  eV     1   --> G_2-           
     e(236 -236) =     18.35466  eV     1   --> G_2+           
     e(237 -237) =     18.37154  eV     1   --> G_2+           
     e(238 -238) =     18.39800  eV     1   --> G_2-           
     e(239 -239) =     18.50528  eV     1   --> G_2+           
     e(240 -240) =     18.51919  eV     1   --> G_2-           

 **************************************************************************
 
     BANDS        :      7h56m CPU      8h59m WALL

 
   This run was terminated on:   6:42:18  25Sep2025            

=------------------------------------------------------------------------------=
   JOB DONE.
=------------------------------------------------------------------------------=
