
     Program PWSCF v.7.2 starts on 23Sep2025 at 14:45:16 

     This program is part of the open-source Quantum ESPRESSO suite
     for quantum simulation of materials; please cite
         "P. Giannozzi et al., J. Phys.:Condens. Matter 21 395502 (2009);
         "P. Giannozzi et al., J. Phys.:Condens. Matter 29 465901 (2017);
         "P. Giannozzi et al., J. Chem. Phys. 152 154105 (2020);
          URL http://www.quantum-espresso.org", 
     in publications or presentations arising from this work. More details at
     http://www.quantum-espresso.org/quote

     Parallel version (MPI), running on    32 processors

     MPI processes distributed on     1 nodes
     113327 MiB available memory on the printing compute node when the environment starts
 
     Reading input from MnBi2Te4.nscf.in

     Current dimensions of program PWSCF are:
     Max number of different atomic species (ntypx) = 10
     Max number of k-points (npk) =  40000
     Max angular momentum in pseudopotentials (lmaxx) =  4
     Message from routine input:
     WARNING: "startingwfc" set to atomic+random may spoil restart
     file Mn.rel-pbe-spn-kjpaw_psl.0.3.1.UPF: wavefunction(s)  3P 3P 3D renormalized
     file Mn.rel-pbe-spn-kjpaw_psl.0.3.1.UPF: wavefunction(s)  3P 3P 3D renormalized
     file Bi.rel-pbe-dn-kjpaw_psl.1.0.0.UPF: wavefunction(s)  6P 6P 5D 5D renormalized
     file Te.rel-pbe-n-kjpaw_psl.1.0.0.UPF: wavefunction(s)  5S 5P 5P renormalized

     Fixed quantization axis for GGA:     0.000000    0.000000    1.000000
 
     R & G space division:  proc/nbgrp/npool/nimage =      32
     Subspace diagonalization in iterative solution of the eigenvalue problem:
     one sub-group per band group will be used
     scalapack distributed-memory algorithm (size of sub-group:  2*  2 procs)

 
     Parallelization info
     --------------------
     sticks:   dense  smooth     PW     G-vecs:    dense   smooth      PW
     Min         252     252     73                 5873     5873     933
     Max         253     253     74                 5875     5875     934
     Sum        8079    8079   2357               187971   187971   29875
 
     Using Slab Decomposition
 


     bravais-lattice index     =            0
     lattice parameter (alat)  =      51.7756  a.u.
     unit-cell volume          =    2994.5794 (a.u.)^3
     number of atoms/cell      =           14
     number of atomic types    =            4
     number of electrons       =       138.00
     number of Kohn-Sham states=          240
     kinetic-energy cutoff     =      60.0000  Ry
     charge density cutoff     =     240.0000  Ry
     Exchange-correlation= SLA  PW   PBX  PBC
                           (   1   4   3   4   0   0   0)
     Noncollinear calculation with spin-orbit

     Hubbard projectors: ortho-atomic
     Hubbard parameters of DFT+U (Liechtenstein formulation) in eV:
     U(Mn1-3d) =  1.0000
     U(Mn2-3d) =  1.0000
     DFT+U on averaged j=l+1/2,l-1/2 radial WFs

     Internal variables: lda_plus_u = T, lda_plus_u_kind = 1

     celldm(1)=  51.775642  celldm(2)=   0.000000  celldm(3)=   0.000000
     celldm(4)=   0.000000  celldm(5)=   0.000000  celldm(6)=   0.000000

     crystal axes: (cart. coord. in units of alat)
               a(1) = (   0.079085  -0.045660   0.995822 )  
               a(2) = (   0.000000   0.091319   0.995822 )  
               a(3) = (  -0.079085  -0.045660   0.995822 )  

     reciprocal axes: (cart. coord. in units 2 pi/alat)
               b(1) = (  6.322314 -3.650196  0.334731 )  
               b(2) = (  0.000000  7.300392  0.334734 )  
               b(3) = ( -6.322314 -3.650196  0.334731 )  


     PseudoPot. # 1 for Mn read from file:
     ./Mn.rel-pbe-spn-kjpaw_psl.0.3.1.UPF
     MD5 check sum: dfba1c7561257014502ac20495784078
     Pseudo is Projector augmented-wave + core cor, Zval = 15.0
     Generated using &quot;atomic&quot; code by A. Dal Corso  v.6.2.2
     Shape of augmentation charge: PSQ
     Using radial grid of 1187 points, 10 beta functions with: 
                l(1) =   0
                l(2) =   0
                l(3) =   1
                l(4) =   1
                l(5) =   1
                l(6) =   1
                l(7) =   2
                l(8) =   2
                l(9) =   2
               l(10) =   2
     Q(r) pseudized with 0 coefficients 


     PseudoPot. # 2 for Mn read from file:
     ./Mn.rel-pbe-spn-kjpaw_psl.0.3.1.UPF
     MD5 check sum: dfba1c7561257014502ac20495784078
     Pseudo is Projector augmented-wave + core cor, Zval = 15.0
     Generated using &quot;atomic&quot; code by A. Dal Corso  v.6.2.2
     Shape of augmentation charge: PSQ
     Using radial grid of 1187 points, 10 beta functions with: 
                l(1) =   0
                l(2) =   0
                l(3) =   1
                l(4) =   1
                l(5) =   1
                l(6) =   1
                l(7) =   2
                l(8) =   2
                l(9) =   2
               l(10) =   2
     Q(r) pseudized with 0 coefficients 


     PseudoPot. # 3 for Bi read from file:
     ./Bi.rel-pbe-dn-kjpaw_psl.1.0.0.UPF
     MD5 check sum: 8010b987e9fb97324c8de82fb26a3f7d
     Pseudo is Projector augmented-wave + core cor, Zval = 15.0
     Generated using &quot;atomic&quot; code by A. Dal Corso  v.6.2.2
     Shape of augmentation charge: PSQ
     Using radial grid of 1283 points, 10 beta functions with: 
                l(1) =   0
                l(2) =   0
                l(3) =   1
                l(4) =   1
                l(5) =   1
                l(6) =   1
                l(7) =   2
                l(8) =   2
                l(9) =   2
               l(10) =   2
     Q(r) pseudized with 0 coefficients 


     PseudoPot. # 4 for Te read from file:
     ./Te.rel-pbe-n-kjpaw_psl.1.0.0.UPF
     MD5 check sum: 8399411061dffbb19b40ade5049f5146
     Pseudo is Projector augmented-wave + core cor, Zval =  6.0
     Generated using &quot;atomic&quot; code by A. Dal Corso  v.6.3
     Shape of augmentation charge: PSQ
     Using radial grid of 1245 points, 10 beta functions with: 
                l(1) =   0
                l(2) =   0
                l(3) =   1
                l(4) =   1
                l(5) =   1
                l(6) =   1
                l(7) =   2
                l(8) =   2
                l(9) =   2
               l(10) =   2
     Q(r) pseudized with 0 coefficients 


     atomic species   valence    mass     pseudopotential
        Mn1           15.00    54.93800     Mn( 1.00)
        Mn2           15.00    54.93800     Mn( 1.00)
        Bi            15.00   208.98000     Bi( 1.00)
        Te             6.00   127.60300     Te( 1.00)

     No symmetry found


                                    s                        frac. trans.

      isym =  1     identity                                     

 Time Reversal            0
 cryst.   s( 1) = (     1          0          0      )
                  (     0          1          0      )
                  (     0          0          1      )

 cart.    s( 1) = (  1.0000000  0.0000000  0.0000000 )
                  (  0.0000000  1.0000000 -0.0000000 )
                  (  0.0000000  0.0000000  1.0000000 )


   Cartesian axes

     site n.     atom                  positions (alat units)
         1           Mn1 tau(   1) = (   0.0000000   0.0000000   0.0000000  )
         2           Mn2 tau(   2) = (   0.0000000  -0.0000005   1.4937325  )
         3           Bi  tau(   3) = (   0.0000000  -0.0000002   0.6346869  )
         4           Bi  tau(   4) = (   0.0000000  -0.0000007   2.1284194  )
         5           Bi  tau(   5) = (   0.0000000  -0.0000003   0.8590455  )
         6           Bi  tau(   6) = (   0.0000000  -0.0000008   2.3527780  )
         7           Te  tau(   7) = (   0.0000000  -0.0000001   0.1992042  )
         8           Te  tau(   8) = (   0.0000000  -0.0000006   1.6929366  )
         9           Te  tau(   9) = (   0.0000000  -0.0000004   1.2945283  )
        10           Te  tau(  10) = (   0.0000000  -0.0000009   2.7882608  )
        11           Te  tau(  11) = (   0.0000000  -0.0000001   0.4392470  )
        12           Te  tau(  12) = (   0.0000000  -0.0000006   1.9329794  )
        13           Te  tau(  13) = (   0.0000000  -0.0000004   1.0544855  )
        14           Te  tau(  14) = (   0.0000000  -0.0000009   2.5482179  )

     --------------------------------------------
     DFT-D3 Dispersion Correction (3-body terms):
     --------------------------------------------
       Reference C6 values for interpolation: 

         atom   Coordination number   C6
         Mn1        0.000          1605.50
         Mn1        1.641           479.11
         Mn1        9.885           227.69
         Mn2        0.000          1605.50
         Mn2        1.641           479.11
         Mn2        9.885           227.69
         Te         0.000           851.07
         Te         0.981           850.20
         Te         1.964           837.16
         Bi         0.000          1235.06
         Bi         0.982          1188.09
         Bi         1.966          1132.10
         Bi         2.950          1067.76

       Values used:

         atom   Coordination number  R0_AB[au]  C6      C8
         Mn1        3.848            3.351    479.11  48433.79
         Mn2        3.848            3.351    479.11  48433.79
         Bi         5.275            3.890   1067.76 147315.96
         Bi         5.275            3.890   1067.76 147315.96
         Bi         5.275            3.890   1067.76 147315.96
         Bi         5.275            3.890   1067.76 147315.96
         Te         3.328            3.676    837.16  84978.06
         Te         3.328            3.676    837.16  84978.06
         Te         3.328            3.676    837.16  84978.06
         Te         3.328            3.676    837.16  84978.06
         Te         4.238            3.676    837.16  84978.05
         Te         4.238            3.676    837.16  84978.05
         Te         4.238            3.676    837.16  84978.05
         Te         4.238            3.676    837.16  84978.05

         Molecular C6 ( Ry / a.u.^6 ) =    164642.77


   Crystallographic axes

     site n.     atom                  positions (cryst. coord.)
         1           Mn1 tau(   1) = (  0.0000000  0.0000000  0.0000000  )
         2           Mn2 tau(   2) = (  0.5000000  0.5000000  0.5000000  )
         3           Bi  tau(   3) = (  0.2124500  0.2124500  0.2124500  )
         4           Bi  tau(   4) = (  0.7124500  0.7124500  0.7124500  )
         5           Bi  tau(   5) = (  0.2875500  0.2875500  0.2875500  )
         6           Bi  tau(   6) = (  0.7875500  0.7875500  0.7875500  )
         7           Te  tau(   7) = (  0.0666800  0.0666800  0.0666800  )
         8           Te  tau(   8) = (  0.5666800  0.5666800  0.5666800  )
         9           Te  tau(   9) = (  0.4333200  0.4333200  0.4333200  )
        10           Te  tau(  10) = (  0.9333200  0.9333200  0.9333200  )
        11           Te  tau(  11) = (  0.1470300  0.1470300  0.1470300  )
        12           Te  tau(  12) = (  0.6470300  0.6470300  0.6470300  )
        13           Te  tau(  13) = (  0.3529700  0.3529700  0.3529700  )
        14           Te  tau(  14) = (  0.8529700  0.8529700  0.8529700  )

     number of k points=    64  Marzari-Vanderbilt smearing, width (Ry)=  0.0200
                       cart. coord. in units 2pi/alat
        k(    1) = (   0.0000000   0.0000000   0.0000000), wk =   0.0156250
        k(    2) = (  -1.5805784  -0.9125490   0.0836827), wk =   0.0156250
        k(    3) = (  -3.1611569  -1.8250979   0.1673654), wk =   0.0156250
        k(    4) = (  -4.7417353  -2.7376469   0.2510481), wk =   0.0156250
        k(    5) = (   0.0000000   1.8250979   0.0836836), wk =   0.0156250
        k(    6) = (  -1.5805784   0.9125490   0.1673663), wk =   0.0156250
        k(    7) = (  -3.1611569   0.0000000   0.2510490), wk =   0.0156250
        k(    8) = (  -4.7417353  -0.9125490   0.3347317), wk =   0.0156250
        k(    9) = (   0.0000000   3.6501959   0.1673672), wk =   0.0156250
        k(   10) = (  -1.5805784   2.7376469   0.2510499), wk =   0.0156250
        k(   11) = (  -3.1611569   1.8250979   0.3347326), wk =   0.0156250
        k(   12) = (  -4.7417353   0.9125490   0.4184153), wk =   0.0156250
        k(   13) = (   0.0000000   5.4752938   0.2510508), wk =   0.0156250
        k(   14) = (  -1.5805784   4.5627449   0.3347335), wk =   0.0156250
        k(   15) = (  -3.1611569   3.6501959   0.4184162), wk =   0.0156250
        k(   16) = (  -4.7417353   2.7376469   0.5020989), wk =   0.0156250
        k(   17) = (   1.5805784  -0.9125490   0.0836827), wk =   0.0156250
        k(   18) = (   0.0000000  -1.8250979   0.1673654), wk =   0.0156250
        k(   19) = (  -1.5805784  -2.7376469   0.2510481), wk =   0.0156250
        k(   20) = (  -3.1611569  -3.6501959   0.3347307), wk =   0.0156250
        k(   21) = (   1.5805784   0.9125490   0.1673663), wk =   0.0156250
        k(   22) = (   0.0000000   0.0000000   0.2510490), wk =   0.0156250
        k(   23) = (  -1.5805784  -0.9125490   0.3347317), wk =   0.0156250
        k(   24) = (  -3.1611569  -1.8250979   0.4184143), wk =   0.0156250
        k(   25) = (   1.5805784   2.7376469   0.2510499), wk =   0.0156250
        k(   26) = (   0.0000000   1.8250979   0.3347326), wk =   0.0156250
        k(   27) = (  -1.5805784   0.9125490   0.4184153), wk =   0.0156250
        k(   28) = (  -3.1611569   0.0000000   0.5020979), wk =   0.0156250
        k(   29) = (   1.5805784   4.5627449   0.3347335), wk =   0.0156250
        k(   30) = (   0.0000000   3.6501959   0.4184162), wk =   0.0156250
        k(   31) = (  -1.5805784   2.7376469   0.5020989), wk =   0.0156250
        k(   32) = (  -3.1611569   1.8250979   0.5857815), wk =   0.0156250
        k(   33) = (   3.1611569  -1.8250979   0.1673654), wk =   0.0156250
        k(   34) = (   1.5805784  -2.7376469   0.2510481), wk =   0.0156250
        k(   35) = (   0.0000000  -3.6501959   0.3347307), wk =   0.0156250
        k(   36) = (  -1.5805784  -4.5627449   0.4184134), wk =   0.0156250
        k(   37) = (   3.1611569   0.0000000   0.2510490), wk =   0.0156250
        k(   38) = (   1.5805784  -0.9125490   0.3347317), wk =   0.0156250
        k(   39) = (   0.0000000  -1.8250979   0.4184143), wk =   0.0156250
        k(   40) = (  -1.5805784  -2.7376469   0.5020970), wk =   0.0156250
        k(   41) = (   3.1611569   1.8250979   0.3347326), wk =   0.0156250
        k(   42) = (   1.5805784   0.9125490   0.4184153), wk =   0.0156250
        k(   43) = (   0.0000000   0.0000000   0.5020979), wk =   0.0156250
        k(   44) = (  -1.5805784  -0.9125490   0.5857806), wk =   0.0156250
        k(   45) = (   3.1611569   3.6501959   0.4184162), wk =   0.0156250
        k(   46) = (   1.5805784   2.7376469   0.5020989), wk =   0.0156250
        k(   47) = (   0.0000000   1.8250979   0.5857815), wk =   0.0156250
        k(   48) = (  -1.5805784   0.9125490   0.6694642), wk =   0.0156250
        k(   49) = (   4.7417353  -2.7376469   0.2510481), wk =   0.0156250
        k(   50) = (   3.1611569  -3.6501959   0.3347307), wk =   0.0156250
        k(   51) = (   1.5805784  -4.5627449   0.4184134), wk =   0.0156250
        k(   52) = (   0.0000000  -5.4752938   0.5020961), wk =   0.0156250
        k(   53) = (   4.7417353  -0.9125490   0.3347317), wk =   0.0156250
        k(   54) = (   3.1611569  -1.8250979   0.4184143), wk =   0.0156250
        k(   55) = (   1.5805784  -2.7376469   0.5020970), wk =   0.0156250
        k(   56) = (   0.0000000  -3.6501959   0.5857797), wk =   0.0156250
        k(   57) = (   4.7417353   0.9125490   0.4184153), wk =   0.0156250
        k(   58) = (   3.1611569   0.0000000   0.5020979), wk =   0.0156250
        k(   59) = (   1.5805784  -0.9125490   0.5857806), wk =   0.0156250
        k(   60) = (   0.0000000  -1.8250979   0.6694633), wk =   0.0156250
        k(   61) = (   4.7417353   2.7376469   0.5020989), wk =   0.0156250
        k(   62) = (   3.1611569   1.8250979   0.5857815), wk =   0.0156250
        k(   63) = (   1.5805784   0.9125490   0.6694642), wk =   0.0156250
        k(   64) = (   0.0000000   0.0000000   0.7531469), wk =   0.0156250

                       cryst. coord.
        k(    1) = (   0.0000000   0.0000000   0.0000000), wk =   0.0156250
        k(    2) = (   0.0000000   0.0000000   0.2500000), wk =   0.0156250
        k(    3) = (   0.0000000   0.0000000   0.5000000), wk =   0.0156250
        k(    4) = (  -0.0000000   0.0000000   0.7500000), wk =   0.0156250
        k(    5) = (   0.0000000   0.2500000   0.0000000), wk =   0.0156250
        k(    6) = (   0.0000000   0.2500000   0.2500000), wk =   0.0156250
        k(    7) = (   0.0000000   0.2500000   0.5000000), wk =   0.0156250
        k(    8) = (  -0.0000000   0.2500000   0.7500000), wk =   0.0156250
        k(    9) = (   0.0000000   0.5000000   0.0000000), wk =   0.0156250
        k(   10) = (   0.0000000   0.5000000   0.2500000), wk =   0.0156250
        k(   11) = (   0.0000000   0.5000000   0.5000000), wk =   0.0156250
        k(   12) = (  -0.0000000   0.5000000   0.7500000), wk =   0.0156250
        k(   13) = (   0.0000000   0.7500000   0.0000000), wk =   0.0156250
        k(   14) = (  -0.0000000   0.7500000   0.2500000), wk =   0.0156250
        k(   15) = (   0.0000000   0.7500000   0.5000000), wk =   0.0156250
        k(   16) = (   0.0000000   0.7500000   0.7500000), wk =   0.0156250
        k(   17) = (   0.2500000   0.0000000   0.0000000), wk =   0.0156250
        k(   18) = (   0.2500000   0.0000000   0.2500000), wk =   0.0156250
        k(   19) = (   0.2500000   0.0000000   0.5000000), wk =   0.0156250
        k(   20) = (   0.2500000   0.0000000   0.7500000), wk =   0.0156250
        k(   21) = (   0.2500000   0.2500000   0.0000000), wk =   0.0156250
        k(   22) = (   0.2500000   0.2500000   0.2500000), wk =   0.0156250
        k(   23) = (   0.2500000   0.2500000   0.5000000), wk =   0.0156250
        k(   24) = (   0.2500000   0.2500000   0.7500000), wk =   0.0156250
        k(   25) = (   0.2500000   0.5000000   0.0000000), wk =   0.0156250
        k(   26) = (   0.2500000   0.5000000   0.2500000), wk =   0.0156250
        k(   27) = (   0.2500000   0.5000000   0.5000000), wk =   0.0156250
        k(   28) = (   0.2500000   0.5000000   0.7500000), wk =   0.0156250
        k(   29) = (   0.2500000   0.7500000  -0.0000000), wk =   0.0156250
        k(   30) = (   0.2500000   0.7500000   0.2500000), wk =   0.0156250
        k(   31) = (   0.2500000   0.7500000   0.5000000), wk =   0.0156250
        k(   32) = (   0.2500000   0.7500000   0.7500000), wk =   0.0156250
        k(   33) = (   0.5000000   0.0000000   0.0000000), wk =   0.0156250
        k(   34) = (   0.5000000   0.0000000   0.2500000), wk =   0.0156250
        k(   35) = (   0.5000000   0.0000000   0.5000000), wk =   0.0156250
        k(   36) = (   0.5000000   0.0000000   0.7500000), wk =   0.0156250
        k(   37) = (   0.5000000   0.2500000   0.0000000), wk =   0.0156250
        k(   38) = (   0.5000000   0.2500000   0.2500000), wk =   0.0156250
        k(   39) = (   0.5000000   0.2500000   0.5000000), wk =   0.0156250
        k(   40) = (   0.5000000   0.2500000   0.7500000), wk =   0.0156250
        k(   41) = (   0.5000000   0.5000000   0.0000000), wk =   0.0156250
        k(   42) = (   0.5000000   0.5000000   0.2500000), wk =   0.0156250
        k(   43) = (   0.5000000   0.5000000   0.5000000), wk =   0.0156250
        k(   44) = (   0.5000000   0.5000000   0.7500000), wk =   0.0156250
        k(   45) = (   0.5000000   0.7500000   0.0000000), wk =   0.0156250
        k(   46) = (   0.5000000   0.7500000   0.2500000), wk =   0.0156250
        k(   47) = (   0.5000000   0.7500000   0.5000000), wk =   0.0156250
        k(   48) = (   0.5000000   0.7500000   0.7500000), wk =   0.0156250
        k(   49) = (   0.7500000   0.0000000  -0.0000000), wk =   0.0156250
        k(   50) = (   0.7500000   0.0000000   0.2500000), wk =   0.0156250
        k(   51) = (   0.7500000   0.0000000   0.5000000), wk =   0.0156250
        k(   52) = (   0.7500000   0.0000000   0.7500000), wk =   0.0156250
        k(   53) = (   0.7500000   0.2500000  -0.0000000), wk =   0.0156250
        k(   54) = (   0.7500000   0.2500000   0.2500000), wk =   0.0156250
        k(   55) = (   0.7500000   0.2500000   0.5000000), wk =   0.0156250
        k(   56) = (   0.7500000   0.2500000   0.7500000), wk =   0.0156250
        k(   57) = (   0.7500000   0.5000000  -0.0000000), wk =   0.0156250
        k(   58) = (   0.7500000   0.5000000   0.2500000), wk =   0.0156250
        k(   59) = (   0.7500000   0.5000000   0.5000000), wk =   0.0156250
        k(   60) = (   0.7500000   0.5000000   0.7500000), wk =   0.0156250
        k(   61) = (   0.7500000   0.7500000   0.0000000), wk =   0.0156250
        k(   62) = (   0.7500000   0.7500000   0.2500000), wk =   0.0156250
        k(   63) = (   0.7500000   0.7500000   0.5000000), wk =   0.0156250
        k(   64) = (   0.7500000   0.7500000   0.7500000), wk =   0.0156250

     Dense  grid:   187971 G-vectors     FFT dimensions: ( 256, 256, 256)

     Dynamical RAM for                 wfc:       5.38 MB

     Dynamical RAM for     wfc (w. buffer):       5.38 MB

     Dynamical RAM for             U proj.:       0.99 MB

     Dynamical RAM for  U proj. (w. buff.):       0.99 MB

     Dynamical RAM for           str. fact:       0.36 MB

     Dynamical RAM for           local pot:       0.00 MB

     Dynamical RAM for          nlocal pot:       5.33 MB

     Dynamical RAM for                qrad:      13.03 MB

     Dynamical RAM for          rho,v,vnew:      49.08 MB

     Dynamical RAM for           G-vectors:       0.38 MB

     Dynamical RAM for          h,s,v(r/c):       2.64 MB

     Dynamical RAM for          <psi|beta>:       3.49 MB

     Dynamical RAM for                 psi:      10.75 MB

     Dynamical RAM for                hpsi:      10.75 MB

     Dynamical RAM for                spsi:      10.75 MB

     Dynamical RAM for      wfcinit/wfcrot:       9.38 MB

     Dynamical RAM for           addusdens:      55.66 MB

     Estimated static dynamical RAM per process >     106.99 MB

     Estimated max dynamical RAM per process >     162.65 MB

     Estimated total dynamical RAM >       5.08 GB

     Atomic positions and unit cell read from directory:
     ./tmp/MnBi2Te4.save/
 

     Check: negative core charge=   -0.000015
     Generating pointlists ...
     new r_m :   0.0448 (alat units)  2.3181 (a.u.) for type    1
     new r_m :   0.0448 (alat units)  2.3181 (a.u.) for type    2
     new r_m :   0.0456 (alat units)  2.3625 (a.u.) for type    3
     new r_m :   0.0448 (alat units)  2.3181 (a.u.) for type    4

     The potential is recalculated from file :
     ./tmp/MnBi2Te4.save/charge-density

 --- in v_hubbard ---
Hub. E (dc, noflip, flip, total)    1.7419   1.7735  -0.0001   0.0315
 -------

     STARTING HUBBARD OCCUPATIONS:

     ================= HUBBARD OCCUPATIONS ================
     ------------------------ ATOM    1 ------------------------
     Tr[ns(  1)] (up, down, total) =   4.94417  0.44956  5.39373
     eigenvalues:
       0.022  0.022  0.023  0.189  0.193  0.974  0.985  0.995  0.995  0.996
     eigenvectors (columns):
      -0.000  0.008 -0.000 -0.000  0.007 -0.004  0.001  0.016  0.005 -1.000
       0.000 -0.000  0.000  0.000 -0.000  0.000  0.000  0.000  0.000  0.000
       0.006 -0.000 -0.008 -0.005 -0.001 -0.515  0.536  0.477  0.468  0.012
      -0.006  0.000 -0.000 -0.004  0.000  0.477 -0.469  0.520  0.532  0.009
      -0.000  0.000  0.000  0.000 -0.000 -0.000 -0.000  0.000  0.000  0.000
      -0.000  0.000 -0.000  0.000  0.000  0.000  0.000  0.000  0.000  0.000
       0.457  0.439  0.005  0.526  0.567 -0.000 -0.005 -0.000  0.006  0.008
       0.000 -0.000  0.000 -0.000  0.000  0.000  0.000 -0.000 -0.000 -0.000
       0.000 -0.000  0.000  0.000 -0.000 -0.000 -0.000  0.000 -0.000 -0.000
       0.517  0.575  0.004 -0.464 -0.432  0.001 -0.006  0.000 -0.004  0.001
     occupations, | n_(i1, i2)^(sigma1, sigma2) |:
       0.996  0.000  0.000  0.000  0.000  0.000  0.007  0.007  0.002  0.002
       0.000  0.986  0.003  0.003  0.008  0.008  0.000  0.000  0.005  0.005
       0.000  0.003  0.986  0.008  0.003  0.008  0.000  0.001  0.005  0.005
       0.000  0.003  0.008  0.988  0.003  0.000  0.004  0.005  0.001  0.001
       0.000  0.008  0.003  0.003  0.988  0.000  0.005  0.004  0.001  0.001
       0.000  0.008  0.008  0.000  0.000  0.023  0.000  0.000  0.000  0.000
       0.007  0.000  0.000  0.004  0.005  0.000  0.123  0.007  0.000  0.083
       0.007  0.000  0.001  0.005  0.004  0.000  0.007  0.123  0.083  0.000
       0.002  0.005  0.005  0.001  0.001  0.000  0.000  0.083  0.090  0.005
       0.002  0.005  0.005  0.001  0.001  0.000  0.083  0.000  0.005  0.090
     Atomic magnetic moment mx, my, mz =     0.000000    0.000114    4.494604
     ------------------------ ATOM    2 ------------------------
     Tr[ns(  2)] (up, down, total) =   0.44986  4.94411  5.39397
     eigenvalues:
       0.022  0.022  0.023  0.189  0.193  0.973  0.985  0.995  0.995  0.996
     eigenvectors (columns):
       0.029 -0.025 -0.999  0.000  0.000  0.009  0.000  0.008  0.000 -0.000
       0.000 -0.000  0.000  0.000 -0.000  0.000  0.000 -0.000  0.000 -0.000
      -0.458  0.438 -0.025 -0.529 -0.564 -0.001  0.005 -0.000 -0.005  0.008
      -0.519  0.572 -0.029  0.466  0.430 -0.000  0.006  0.000  0.004  0.001
       0.000 -0.000  0.000 -0.000  0.000  0.000  0.000  0.000  0.000 -0.000
      -0.000  0.000 -0.000 -0.000  0.000  0.000 -0.000 -0.000  0.000 -0.000
       0.006 -0.000 -0.008 -0.005  0.000 -0.519  0.529 -0.484  0.465  0.009
      -0.000 -0.000  0.000 -0.000 -0.000  0.000  0.000  0.000  0.000 -0.000
      -0.000 -0.000  0.000  0.000 -0.000 -0.000 -0.000  0.000  0.000 -0.000
      -0.006 -0.000 -0.000 -0.004 -0.001  0.484 -0.465 -0.523  0.525  0.005
     occupations, | n_(i1, i2)^(sigma1, sigma2) |:
       0.023  0.000  0.000  0.000  0.000  0.000  0.008  0.008  0.000  0.000
       0.000  0.123  0.007  0.000  0.083  0.007  0.001  0.001  0.005  0.005
       0.000  0.007  0.123  0.083  0.000  0.007  0.001  0.000  0.004  0.005
       0.000  0.000  0.083  0.090  0.005  0.002  0.005  0.005  0.001  0.001
       0.000  0.083  0.000  0.005  0.090  0.002  0.005  0.005  0.001  0.002
       0.000  0.007  0.007  0.002  0.002  0.996  0.000  0.000  0.000  0.000
       0.008  0.001  0.001  0.005  0.005  0.000  0.986  0.003  0.003  0.008
       0.008  0.001  0.000  0.005  0.005  0.000  0.003  0.986  0.008  0.003
       0.000  0.005  0.004  0.001  0.001  0.000  0.003  0.008  0.988  0.003
       0.000  0.005  0.005  0.001  0.002  0.000  0.008  0.003  0.003  0.988
     Atomic magnetic moment mx, my, mz =    -0.000000   -0.001239   -4.494246

     Number of occupied Hubbard levels =   10.7877

     Atomic wfc used for Hubbard projectors are orthogonalized

     Starting wfcs are  176 randomized atomic wfcs +   64 random wfcs
     Checking if some PAW data can be deallocated... 
       PAW data deallocated on   29 nodes for type:  1
       PAW data deallocated on   29 nodes for type:  2
       PAW data deallocated on   22 nodes for type:  3
       PAW data deallocated on   16 nodes for type:  4

     Band Structure Calculation
     Davidson diagonalization with overlap

     Computing kpt #:     1  of    64
     total cpu time spent up to now is      316.4 secs

     Computing kpt #:     2  of    64
     total cpu time spent up to now is      587.0 secs

     Computing kpt #:     3  of    64
     total cpu time spent up to now is      884.9 secs

     Computing kpt #:     4  of    64
     total cpu time spent up to now is     1181.8 secs

     Computing kpt #:     5  of    64
     total cpu time spent up to now is     1504.3 secs

     Computing kpt #:     6  of    64
     total cpu time spent up to now is     1803.1 secs

     Computing kpt #:     7  of    64
     total cpu time spent up to now is     2036.2 secs

     Computing kpt #:     8  of    64
     total cpu time spent up to now is     2294.7 secs

     Computing kpt #:     9  of    64
     total cpu time spent up to now is     2592.6 secs

     Computing kpt #:    10  of    64
     total cpu time spent up to now is     2825.5 secs

     Computing kpt #:    11  of    64
     total cpu time spent up to now is     3118.2 secs

     Computing kpt #:    12  of    64
     total cpu time spent up to now is     3351.2 secs

     Computing kpt #:    13  of    64
     total cpu time spent up to now is     3672.0 secs

     Computing kpt #:    14  of    64
     total cpu time spent up to now is     3928.6 secs

     Computing kpt #:    15  of    64
     total cpu time spent up to now is     4185.3 secs

     Computing kpt #:    16  of    64
     total cpu time spent up to now is     4507.5 secs

     Computing kpt #:    17  of    64
     total cpu time spent up to now is     4804.5 secs

     Computing kpt #:    18  of    64
     total cpu time spent up to now is     5100.7 secs

     Computing kpt #:    19  of    64
     total cpu time spent up to now is     5332.9 secs

     Computing kpt #:    20  of    64
     total cpu time spent up to now is     5591.2 secs

     Computing kpt #:    21  of    64
     total cpu time spent up to now is     5887.8 secs

     Computing kpt #:    22  of    64
     total cpu time spent up to now is     6190.2 secs

     Computing kpt #:    23  of    64
     total cpu time spent up to now is     6483.1 secs

     Computing kpt #:    24  of    64
     c_bands:  1 eigenvalues not converged
     total cpu time spent up to now is     6833.4 secs

     Computing kpt #:    25  of    64
     total cpu time spent up to now is     7067.4 secs

     Computing kpt #:    26  of    64
     total cpu time spent up to now is     7358.4 secs

     Computing kpt #:    27  of    64
     total cpu time spent up to now is     7626.3 secs

     Computing kpt #:    28  of    64
     total cpu time spent up to now is     7870.8 secs

     Computing kpt #:    29  of    64
     total cpu time spent up to now is     8128.2 secs

     Computing kpt #:    30  of    64
     total cpu time spent up to now is     8461.0 secs

     Computing kpt #:    31  of    64
     total cpu time spent up to now is     8693.1 secs

     Computing kpt #:    32  of    64
     total cpu time spent up to now is     9043.5 secs

     Computing kpt #:    33  of    64
     total cpu time spent up to now is     9342.5 secs

     Computing kpt #:    34  of    64
     total cpu time spent up to now is     9599.8 secs

     Computing kpt #:    35  of    64
     total cpu time spent up to now is     9894.6 secs

     Computing kpt #:    36  of    64
     total cpu time spent up to now is    10127.6 secs

     Computing kpt #:    37  of    64
     total cpu time spent up to now is    10360.8 secs

     Computing kpt #:    38  of    64
     total cpu time spent up to now is    10651.6 secs

     Computing kpt #:    39  of    64
     total cpu time spent up to now is    10918.1 secs

     Computing kpt #:    40  of    64
     total cpu time spent up to now is    11150.3 secs

     Computing kpt #:    41  of    64
     total cpu time spent up to now is    11442.0 secs

     Computing kpt #:    42  of    64
     total cpu time spent up to now is    11709.6 secs

     Computing kpt #:    43  of    64
     total cpu time spent up to now is    11989.0 secs

     Computing kpt #:    44  of    64
     total cpu time spent up to now is    12255.5 secs

     Computing kpt #:    45  of    64
     total cpu time spent up to now is    12512.1 secs

     Computing kpt #:    46  of    64
     total cpu time spent up to now is    12743.7 secs

     Computing kpt #:    47  of    64
     total cpu time spent up to now is    13008.9 secs

     Computing kpt #:    48  of    64
     total cpu time spent up to now is    13299.6 secs

     Computing kpt #:    49  of    64
     total cpu time spent up to now is    13593.8 secs

     Computing kpt #:    50  of    64
     total cpu time spent up to now is    13852.5 secs

     Computing kpt #:    51  of    64
     total cpu time spent up to now is    14110.3 secs

     Computing kpt #:    52  of    64
     total cpu time spent up to now is    14457.1 secs

     Computing kpt #:    53  of    64
     total cpu time spent up to now is    14740.6 secs

     Computing kpt #:    54  of    64
     c_bands:  1 eigenvalues not converged
     total cpu time spent up to now is    15091.2 secs

     Computing kpt #:    55  of    64
     total cpu time spent up to now is    15322.8 secs

     Computing kpt #:    56  of    64
     total cpu time spent up to now is    15646.9 secs

     Computing kpt #:    57  of    64
     total cpu time spent up to now is    15880.2 secs

     Computing kpt #:    58  of    64
     total cpu time spent up to now is    16112.1 secs

     Computing kpt #:    59  of    64
     total cpu time spent up to now is    16380.7 secs

     Computing kpt #:    60  of    64
     total cpu time spent up to now is    16671.8 secs

     Computing kpt #:    61  of    64
     total cpu time spent up to now is    16992.8 secs

     Computing kpt #:    62  of    64
     total cpu time spent up to now is    17341.3 secs

     Computing kpt #:    63  of    64
     total cpu time spent up to now is    17633.3 secs

     Computing kpt #:    64  of    64
     total cpu time spent up to now is    17959.5 secs

     ethr =  2.17E-08,  avg # of iterations = 62.0

     total cpu time spent up to now is    17959.5 secs

     End of band structure calculation

          k = 0.0000 0.0000 0.0000 ( 23485 PWs)   bands (ev):

   -74.3200 -74.2321 -69.6633 -69.5757 -43.5522 -43.4643 -43.1889 -43.1014
   -42.6368 -42.5488 -38.8307 -38.7433 -38.4442 -38.3567 -38.0797 -37.9923
   -16.8855 -16.8853 -16.8825 -16.8823 -16.8786 -16.8784 -16.8739 -16.8737
   -16.8501 -16.8499 -16.8420 -16.8418 -16.8278 -16.8275 -16.8215 -16.8213
   -13.9130 -13.9127 -13.9039 -13.9038 -13.9010 -13.9009 -13.8933 -13.8931
   -13.8902 -13.8900 -13.8844 -13.8841 -13.8772 -13.8771 -13.8615 -13.8613
   -13.8581 -13.8579 -13.8524 -13.8523 -13.8383 -13.8381 -13.8288 -13.8286
    -5.5062  -5.4753  -5.3803  -5.3435  -5.2986  -5.2515  -5.1463  -5.0846
    -3.8398  -3.8150  -3.6142  -3.5829  -3.3519  -3.3230  -3.0608  -3.0445
    -1.4551  -1.4302  -1.1055  -1.0903  -0.7579  -0.7403  -0.4736  -0.4534
     3.3257   3.3957   3.5535   3.6084   3.6368   3.6944   4.0142   4.0271
     4.0931   4.1000   4.1135   4.1486   4.5654   4.6191   4.6815   4.7253
     5.2235   5.2479   5.2724   5.3083   5.5235   5.5446   5.7105   5.7485
     5.7684   5.8314   6.0146   6.0460   6.1161   6.1879   6.2296   6.2398
     6.3786   6.3803   6.3894   6.4090   6.4204   6.4466   6.6678   6.6849
     6.7312   6.7613   6.8251   6.8488   7.0105   7.0249   7.0297   7.0906
     7.1942   7.2338   7.3065   7.3508   7.5404   7.5575   7.6222   7.6512
     7.7093   7.7194   7.8528   7.8607   7.9121   7.9459   8.0624   8.1042
     8.1762   8.2275   8.8124   8.8584   8.8955   8.9349   9.0235   9.0380
     9.1257   9.1390   9.2133   9.2621   9.3591   9.3705   9.3950   9.4201
     9.5146   9.5437   9.5799   9.6590   9.8738   9.8895   9.9138   9.9551
     9.9928  10.0674  10.4993  10.5660  11.4150  11.4804  11.6974  11.7394
    11.7713  11.7953  12.4985  12.5683  12.7118  12.7735  12.8456  12.9139
    13.2138  13.2483  13.2906  13.3184  13.3249  13.3535  13.4079  13.4807
    13.5008  13.5636  13.6821  13.6987  13.7354  13.7698  13.7977  13.8367
    13.9603  14.1121  14.1489  14.1903  14.1969  14.2071  14.2519  14.2680
    14.3734  14.3794  14.5058  14.6987  14.7398  14.7853  14.8944  15.0051
    15.0091  15.0309  15.1458  15.2393  15.3491  15.3570  15.4061  15.4106
    15.5367  15.5543  15.6056  15.6115  15.6433  15.7069  15.7274  15.7963
    15.9208  16.2379  16.2582  16.3334  16.3593  16.3787  16.4572  16.4790

     occupation numbers 
     1.0000   1.0000   1.0000   1.0000   1.0000   1.0000   1.0000   1.0000
     1.0000   1.0000   1.0000   1.0000   1.0000   1.0000   1.0000   1.0000
     1.0000   1.0000   1.0000   1.0000   1.0000   1.0000   1.0000   1.0000
     1.0000   1.0000   1.0000   1.0000   1.0000   1.0000   1.0000   1.0000
     1.0000   1.0000   1.0000   1.0000   1.0000   1.0000   1.0000   1.0000
     1.0000   1.0000   1.0000   1.0000   1.0000   1.0000   1.0000   1.0000
     1.0000   1.0000   1.0000   1.0000   1.0000   1.0000   1.0000   1.0000
     1.0000   1.0000   1.0000   1.0000   1.0000   1.0000   1.0000   1.0000
     1.0000   1.0000   1.0000   1.0000   1.0000   1.0000   1.0000   1.0000
     1.0000   1.0000   1.0000   1.0000   1.0000   1.0000   1.0000   1.0000
     1.0000   1.0000   1.0000   1.0000   1.0000   1.0000   1.0000   1.0000
     1.0000   1.0000   1.0000   1.0000   1.0000   1.0000   1.0000   1.0000
     1.0000   1.0000   1.0000   1.0000   1.0000   1.0000   1.0000   1.0000
     1.0000   1.0000   1.0000   1.0000   1.0000   1.0000   1.0000   1.0000
     1.0000   1.0000   1.0000   1.0000   1.0000   1.0000   1.0000   1.0001
     1.0002   1.0003   1.0009   1.0013   1.0127   1.0150   1.0159   1.0295
     1.0631   1.0752   1.0823   1.0683   0.7607   0.7156   0.5380   0.4597
     0.3163   0.2943   0.0889   0.0817   0.0453   0.0296   0.0055   0.0027
     0.0007   0.0003   0.0000   0.0000   0.0000   0.0000   0.0000   0.0000
     0.0000   0.0000   0.0000   0.0000   0.0000   0.0000   0.0000   0.0000
     0.0000   0.0000   0.0000   0.0000   0.0000   0.0000   0.0000   0.0000
     0.0000   0.0000   0.0000   0.0000   0.0000   0.0000   0.0000   0.0000
     0.0000   0.0000   0.0000   0.0000   0.0000   0.0000   0.0000   0.0000
     0.0000   0.0000   0.0000   0.0000   0.0000   0.0000   0.0000   0.0000
     0.0000   0.0000   0.0000   0.0000   0.0000   0.0000   0.0000   0.0000
     0.0000   0.0000   0.0000   0.0000   0.0000   0.0000   0.0000   0.0000
     0.0000   0.0000   0.0000   0.0000   0.0000   0.0000   0.0000   0.0000
     0.0000   0.0000   0.0000   0.0000   0.0000   0.0000   0.0000   0.0000
     0.0000   0.0000   0.0000   0.0000   0.0000   0.0000   0.0000   0.0000
     0.0000   0.0000   0.0000   0.0000   0.0000   0.0000   0.0000   0.0000

          k =-1.5806-0.9125 0.0837 ( 23485 PWs)   bands (ev):

   -74.3200 -74.2321 -69.6633 -69.5757 -43.5524 -43.4645 -43.1889 -43.1014
   -42.6370 -42.5490 -38.8310 -38.7436 -38.4442 -38.3567 -38.0800 -37.9926
   -16.8861 -16.8853 -16.8812 -16.8807 -16.8771 -16.8767 -16.8740 -16.8736
   -16.8497 -16.8489 -16.8416 -16.8413 -16.8274 -16.8271 -16.8205 -16.8201
   -13.9139 -13.9116 -13.9047 -13.9043 -13.8995 -13.8989 -13.8943 -13.8934
   -13.8893 -13.8885 -13.8815 -13.8815 -13.8805 -13.8787 -13.8624 -13.8619
   -13.8543 -13.8540 -13.8493 -13.8490 -13.8360 -13.8358 -13.8311 -13.8300
    -4.9653  -4.9393  -4.8483  -4.8179  -4.7709  -4.7317  -4.6288  -4.5780
    -3.4704  -3.4460  -3.2952  -3.2750  -3.0740  -3.0529  -2.8738  -2.8610
    -1.6443  -1.6286  -1.5292  -1.5084  -1.2595  -1.2193  -1.1920  -1.1500
     3.1452   3.2029   3.3031   3.3404   3.4243   3.4813   3.6256   3.6503
     3.6933   3.7464   3.7680   3.7959   3.9798   4.0489   4.0802   4.0854
     4.1658   4.1933   4.2344   4.2842   4.4593   4.4976   4.5314   4.5921
     4.7049   4.7255   5.0525   5.0886   5.1984   5.2304   5.2618   5.3248
     5.3774   5.4155   5.6689   5.6938   5.7910   5.8135   5.9462   5.9683
     6.0527   6.0612   6.2537   6.2708   6.3952   6.4084   6.4381   6.4533
     6.6035   6.6494   6.7801   6.8170   7.0913   7.1245   7.2107   7.2689
     7.4055   7.4596   8.3439   8.3673   8.3902   8.4168   8.7998   8.8808
     8.9919   8.9969   9.0362   9.0526   9.1634   9.2134   9.2510   9.2858
     9.2931   9.3688   9.4940   9.5519   9.7502   9.7886   9.8348   9.8493
    10.0807  10.0917  10.2030  10.2532  10.3224  10.3799  10.6257  10.6917
    10.8406  10.8682  11.0880  11.1214  11.5602  11.6017  11.8375  11.9077
    12.0443  12.0911  12.3034  12.3852  12.4074  12.5889  12.8120  12.8619
    13.3133  13.4096  13.4327  13.4716  13.5484  13.5959  13.6278  13.6582
    13.8090  13.8254  14.0596  14.1528  14.1956  14.2390  14.3698  14.4091
    14.4680  14.5897  14.6516  14.6872  14.7191  14.7950  14.8607  14.8869
    14.9226  15.0323  15.0808  15.1481  15.2065  15.3973  15.4497  15.6017
    15.6339  15.7689  15.9554  15.9808  16.0272  16.1104  16.1489  16.1657
    16.3281  16.4174  16.6059  16.7219  16.7756  16.8536  16.8741  16.9297
    17.1100  17.1754  17.1991  17.2647  17.2920  17.3507  17.4447  17.4815

     occupation numbers 
     1.0000   1.0000   1.0000   1.0000   1.0000   1.0000   1.0000   1.0000
     1.0000   1.0000   1.0000   1.0000   1.0000   1.0000   1.0000   1.0000
     1.0000   1.0000   1.0000   1.0000   1.0000   1.0000   1.0000   1.0000
     1.0000   1.0000   1.0000   1.0000   1.0000   1.0000   1.0000   1.0000
     1.0000   1.0000   1.0000   1.0000   1.0000   1.0000   1.0000   1.0000
     1.0000   1.0000   1.0000   1.0000   1.0000   1.0000   1.0000   1.0000
     1.0000   1.0000   1.0000   1.0000   1.0000   1.0000   1.0000   1.0000
     1.0000   1.0000   1.0000   1.0000   1.0000   1.0000   1.0000   1.0000
     1.0000   1.0000   1.0000   1.0000   1.0000   1.0000   1.0000   1.0000
     1.0000   1.0000   1.0000   1.0000   1.0000   1.0000   1.0000   1.0000
     1.0000   1.0000   1.0000   1.0000   1.0000   1.0000   1.0000   1.0000
     1.0000   1.0000   1.0000   1.0000   1.0000   1.0000   1.0000   1.0000
     1.0000   1.0000   1.0000   1.0000   1.0000   1.0000   1.0000   1.0000
     1.0000   1.0000   1.0000   1.0000   1.0000   1.0000   1.0000   1.0000
     1.0000   1.0000   1.0000   1.0000   1.0000   1.0000   1.0000   1.0000
     1.0000   1.0000   1.0000   1.0000   1.0000   1.0000   1.0000   1.0000
     1.0000   1.0000   1.0004   1.0007   1.0297   1.0395   1.0685   1.0821
     1.0227   0.9419   0.0000   0.0000   0.0000   0.0000   0.0000   0.0000
     0.0000   0.0000   0.0000   0.0000   0.0000   0.0000   0.0000   0.0000
     0.0000   0.0000   0.0000   0.0000   0.0000   0.0000   0.0000   0.0000
     0.0000   0.0000   0.0000   0.0000   0.0000   0.0000   0.0000   0.0000
     0.0000   0.0000   0.0000   0.0000   0.0000   0.0000   0.0000   0.0000
     0.0000   0.0000   0.0000   0.0000   0.0000   0.0000   0.0000   0.0000
     0.0000   0.0000   0.0000   0.0000   0.0000   0.0000   0.0000   0.0000
     0.0000   0.0000   0.0000   0.0000   0.0000   0.0000   0.0000   0.0000
     0.0000   0.0000   0.0000   0.0000   0.0000   0.0000   0.0000   0.0000
     0.0000   0.0000   0.0000   0.0000   0.0000   0.0000   0.0000   0.0000
     0.0000   0.0000   0.0000   0.0000   0.0000   0.0000   0.0000   0.0000
     0.0000   0.0000   0.0000   0.0000   0.0000   0.0000   0.0000   0.0000
     0.0000   0.0000   0.0000   0.0000   0.0000   0.0000   0.0000   0.0000

          k =-3.1612-1.8251 0.1674 ( 23516 PWs)   bands (ev):

   -74.3200 -74.2321 -69.6633 -69.5757 -43.5526 -43.4646 -43.1888 -43.1013
   -42.6372 -42.5492 -38.8312 -38.7439 -38.4441 -38.3566 -38.0803 -37.9928
   -16.8861 -16.8861 -16.8799 -16.8798 -16.8754 -16.8754 -16.8736 -16.8735
   -16.8489 -16.8488 -16.8410 -16.8409 -16.8269 -16.8269 -16.8191 -16.8191
   -13.9147 -13.9147 -13.9061 -13.9060 -13.9003 -13.9003 -13.8936 -13.8936
   -13.8840 -13.8840 -13.8829 -13.8829 -13.8779 -13.8778 -13.8629 -13.8628
   -13.8512 -13.8511 -13.8473 -13.8472 -13.8326 -13.8326 -13.8304 -13.8304
    -3.8295  -3.8223  -3.7842  -3.7784  -3.7185  -3.7128  -3.6568  -3.6527
    -3.1931  -3.1641  -3.1533  -3.1347  -3.0482  -3.0241  -3.0131  -2.9709
    -2.3475  -2.3446  -2.3057  -2.3039  -2.1541  -2.1517  -2.0901  -2.0878
     2.4496   2.4757   2.5925   2.5929   2.8097   2.8296   2.9640   3.0004
     3.2576   3.2991   3.5349   3.5787   3.6717   3.7402   3.9394   3.9590
     4.0243   4.0410   4.0643   4.0945   4.1386   4.1662   4.1964   4.2386
     4.3669   4.4259   4.5267   4.5839   4.6662   4.6923   4.7250   4.7383
     4.8225   4.8384   4.9271   4.9375   4.9910   4.9963   5.3841   5.3969
     5.4853   5.5136   5.8670   5.8827   5.8847   5.9261   6.0504   6.0806
     6.2250   6.2746   6.4546   6.4716   6.7104   6.7245   7.1207   7.1378
     7.2564   7.3152   8.2264   8.2515   8.4238   8.4433   8.6050   8.6767
     8.8163   8.8174   8.8882   8.9138   9.0476   9.0927   9.2114   9.2190
     9.3120   9.3785   9.4197   9.4722   9.6569   9.7096   9.8046   9.8129
    10.0353  10.0507  10.1125  10.1206  10.5430  10.5474  10.6466  10.6927
    10.8337  10.8566  11.0960  11.1178  11.5034  11.5449  11.5939  11.6157
    11.7015  11.7263  11.9864  12.0281  12.5351  12.6066  13.1473  13.1764
    13.5070  13.5205  13.7316  13.7344  14.2686  14.2966  14.4259  14.5170
    14.7239  14.7303  14.8848  14.9590  15.5263  15.5789  15.7189  15.7205
    16.0405  16.0702  16.2515  16.2625  16.4617  16.4773  16.5595  16.5746
    16.7230  16.7266  16.8167  16.8602  17.0372  17.0937  17.1224  17.1605
    17.5139  17.5296  17.6839  17.7063  17.8314  17.8537  17.9167  17.9333
    18.0353  18.0608  18.0712  18.1045  18.1363  18.1444  18.1804  18.1953
    18.2718  18.3041  18.3395  18.3547  18.3715  18.3980  18.5053  18.5192

     occupation numbers 
     1.0000   1.0000   1.0000   1.0000   1.0000   1.0000   1.0000   1.0000
     1.0000   1.0000   1.0000   1.0000   1.0000   1.0000   1.0000   1.0000
     1.0000   1.0000   1.0000   1.0000   1.0000   1.0000   1.0000   1.0000
     1.0000   1.0000   1.0000   1.0000   1.0000   1.0000   1.0000   1.0000
     1.0000   1.0000   1.0000   1.0000   1.0000   1.0000   1.0000   1.0000
     1.0000   1.0000   1.0000   1.0000   1.0000   1.0000   1.0000   1.0000
     1.0000   1.0000   1.0000   1.0000   1.0000   1.0000   1.0000   1.0000
     1.0000   1.0000   1.0000   1.0000   1.0000   1.0000   1.0000   1.0000
     1.0000   1.0000   1.0000   1.0000   1.0000   1.0000   1.0000   1.0000
     1.0000   1.0000   1.0000   1.0000   1.0000   1.0000   1.0000   1.0000
     1.0000   1.0000   1.0000   1.0000   1.0000   1.0000   1.0000   1.0000
     1.0000   1.0000   1.0000   1.0000   1.0000   1.0000   1.0000   1.0000
     1.0000   1.0000   1.0000   1.0000   1.0000   1.0000   1.0000   1.0000
     1.0000   1.0000   1.0000   1.0000   1.0000   1.0000   1.0000   1.0000
     1.0000   1.0000   1.0000   1.0000   1.0000   1.0000   1.0000   1.0000
     1.0000   1.0000   1.0000   1.0000   1.0000   1.0000   1.0000   1.0000
     1.0000   1.0000   1.0000   1.0000   1.0001   1.0001   1.0383   1.0439
     1.0802   1.0809   0.0003   0.0002   0.0000   0.0000   0.0000   0.0000
     0.0000   0.0000   0.0000   0.0000   0.0000   0.0000   0.0000   0.0000
     0.0000   0.0000   0.0000   0.0000   0.0000   0.0000   0.0000   0.0000
     0.0000   0.0000   0.0000   0.0000   0.0000   0.0000   0.0000   0.0000
     0.0000   0.0000   0.0000   0.0000   0.0000   0.0000   0.0000   0.0000
     0.0000   0.0000   0.0000   0.0000   0.0000   0.0000   0.0000   0.0000
     0.0000   0.0000   0.0000   0.0000   0.0000   0.0000   0.0000   0.0000
     0.0000   0.0000   0.0000   0.0000   0.0000   0.0000   0.0000   0.0000
     0.0000   0.0000   0.0000   0.0000   0.0000   0.0000   0.0000   0.0000
     0.0000   0.0000   0.0000   0.0000   0.0000   0.0000   0.0000   0.0000
     0.0000   0.0000   0.0000   0.0000   0.0000   0.0000   0.0000   0.0000
     0.0000   0.0000   0.0000   0.0000   0.0000   0.0000   0.0000   0.0000
     0.0000   0.0000   0.0000   0.0000   0.0000   0.0000   0.0000   0.0000

          k =-4.7417-2.7376 0.2510 ( 23485 PWs)   bands (ev):

   -74.3200 -74.2321 -69.6633 -69.5757 -43.5524 -43.4645 -43.1889 -43.1014
   -42.6370 -42.5490 -38.8310 -38.7436 -38.4442 -38.3567 -38.0800 -37.9926
   -16.8860 -16.8853 -16.8812 -16.8807 -16.8771 -16.8767 -16.8740 -16.8736
   -16.8497 -16.8489 -16.8416 -16.8412 -16.8274 -16.8272 -16.8205 -16.8200
   -13.9139 -13.9116 -13.9046 -13.9044 -13.8994 -13.8990 -13.8943 -13.8934
   -13.8893 -13.8886 -13.8816 -13.8814 -13.8805 -13.8786 -13.8624 -13.8619
   -13.8543 -13.8539 -13.8494 -13.8489 -13.8360 -13.8358 -13.8312 -13.8300
    -4.9653  -4.9393  -4.8483  -4.8179  -4.7709  -4.7317  -4.6288  -4.5780
    -3.4704  -3.4460  -3.2952  -3.2750  -3.0740  -3.0529  -2.8738  -2.8610
    -1.6443  -1.6286  -1.5292  -1.5084  -1.2595  -1.2192  -1.1920  -1.1500
     3.1452   3.2029   3.3031   3.3404   3.4243   3.4813   3.6256   3.6503
     3.6933   3.7464   3.7680   3.7960   3.9798   4.0489   4.0802   4.0854
     4.1658   4.1933   4.2344   4.2842   4.4593   4.4976   4.5314   4.5921
     4.7049   4.7255   5.0525   5.0886   5.1984   5.2304   5.2618   5.3248
     5.3774   5.4155   5.6689   5.6938   5.7910   5.8135   5.9462   5.9683
     6.0527   6.0612   6.2537   6.2708   6.3952   6.4084   6.4381   6.4533
     6.6035   6.6494   6.7801   6.8170   7.0913   7.1245   7.2107   7.2689
     7.4055   7.4596   8.3439   8.3673   8.3902   8.4168   8.7998   8.8808
     8.9919   8.9969   9.0362   9.0527   9.1634   9.2134   9.2510   9.2858
     9.2931   9.3688   9.4940   9.5519   9.7502   9.7886   9.8348   9.8492
    10.0807  10.0917  10.2030  10.2533  10.3224  10.3799  10.6257  10.6917
    10.8406  10.8682  11.0880  11.1213  11.5602  11.6017  11.8375  11.9077
    12.0443  12.0911  12.3034  12.3852  12.4074  12.5889  12.8120  12.8619
    13.3133  13.4096  13.4327  13.4716  13.5484  13.5959  13.6278  13.6582
    13.8090  13.8254  14.0596  14.1528  14.1956  14.2390  14.3698  14.4091
    14.4680  14.5897  14.6516  14.6872  14.7191  14.7949  14.8607  14.8869
    14.9226  15.0323  15.0808  15.1481  15.2065  15.3973  15.4497  15.6017
    15.6339  15.7689  15.9554  15.9808  16.0272  16.1104  16.1489  16.1657
    16.3281  16.4174  16.6059  16.7219  16.7756  16.8536  16.8741  16.9297
    17.1100  17.1754  17.1991  17.2647  17.2920  17.3507  17.4447  17.4815

     occupation numbers 
     1.0000   1.0000   1.0000   1.0000   1.0000   1.0000   1.0000   1.0000
     1.0000   1.0000   1.0000   1.0000   1.0000   1.0000   1.0000   1.0000
     1.0000   1.0000   1.0000   1.0000   1.0000   1.0000   1.0000   1.0000
     1.0000   1.0000   1.0000   1.0000   1.0000   1.0000   1.0000   1.0000
     1.0000   1.0000   1.0000   1.0000   1.0000   1.0000   1.0000   1.0000
     1.0000   1.0000   1.0000   1.0000   1.0000   1.0000   1.0000   1.0000
     1.0000   1.0000   1.0000   1.0000   1.0000   1.0000   1.0000   1.0000
     1.0000   1.0000   1.0000   1.0000   1.0000   1.0000   1.0000   1.0000
     1.0000   1.0000   1.0000   1.0000   1.0000   1.0000   1.0000   1.0000
     1.0000   1.0000   1.0000   1.0000   1.0000   1.0000   1.0000   1.0000
     1.0000   1.0000   1.0000   1.0000   1.0000   1.0000   1.0000   1.0000
     1.0000   1.0000   1.0000   1.0000   1.0000   1.0000   1.0000   1.0000
     1.0000   1.0000   1.0000   1.0000   1.0000   1.0000   1.0000   1.0000
     1.0000   1.0000   1.0000   1.0000   1.0000   1.0000   1.0000   1.0000
     1.0000   1.0000   1.0000   1.0000   1.0000   1.0000   1.0000   1.0000
     1.0000   1.0000   1.0000   1.0000   1.0000   1.0000   1.0000   1.0000
     1.0000   1.0000   1.0004   1.0007   1.0297   1.0395   1.0685   1.0821
     1.0227   0.9419   0.0000   0.0000   0.0000   0.0000   0.0000   0.0000
     0.0000   0.0000   0.0000   0.0000   0.0000   0.0000   0.0000   0.0000
     0.0000   0.0000   0.0000   0.0000   0.0000   0.0000   0.0000   0.0000
     0.0000   0.0000   0.0000   0.0000   0.0000   0.0000   0.0000   0.0000
     0.0000   0.0000   0.0000   0.0000   0.0000   0.0000   0.0000   0.0000
     0.0000   0.0000   0.0000   0.0000   0.0000   0.0000   0.0000   0.0000
     0.0000   0.0000   0.0000   0.0000   0.0000   0.0000   0.0000   0.0000
     0.0000   0.0000   0.0000   0.0000   0.0000   0.0000   0.0000   0.0000
     0.0000   0.0000   0.0000   0.0000   0.0000   0.0000   0.0000   0.0000
     0.0000   0.0000   0.0000   0.0000   0.0000   0.0000   0.0000   0.0000
     0.0000   0.0000   0.0000   0.0000   0.0000   0.0000   0.0000   0.0000
     0.0000   0.0000   0.0000   0.0000   0.0000   0.0000   0.0000   0.0000
     0.0000   0.0000   0.0000   0.0000   0.0000   0.0000   0.0000   0.0000

          k = 0.0000 1.8251 0.0837 ( 23485 PWs)   bands (ev):

   -74.3200 -74.2321 -69.6633 -69.5757 -43.5524 -43.4645 -43.1889 -43.1014
   -42.6370 -42.5490 -38.8310 -38.7436 -38.4442 -38.3567 -38.0800 -37.9926
   -16.8852 -16.8851 -16.8816 -16.8815 -16.8777 -16.8776 -16.8730 -16.8729
   -16.8488 -16.8487 -16.8418 -16.8418 -16.8280 -16.8280 -16.8197 -16.8196
   -13.9123 -13.9122 -13.9051 -13.9050 -13.9005 -13.9004 -13.8938 -13.8937
   -13.8871 -13.8870 -13.8822 -13.8822 -13.8771 -13.8770 -13.8618 -13.8618
   -13.8594 -13.8594 -13.8486 -13.8486 -13.8350 -13.8350 -13.8296 -13.8295
    -4.9649  -4.9390  -4.8486  -4.8181  -4.7703  -4.7311  -4.6293  -4.5785
    -3.4702  -3.4460  -3.2956  -3.2745  -3.0737  -3.0533  -2.8742  -2.8608
    -1.6462  -1.6269  -1.5309  -1.5067  -1.2602  -1.2188  -1.1921  -1.1500
     3.1479   3.2040   3.2916   3.3484   3.4352   3.4709   3.6281   3.6383
     3.7075   3.7445   3.7676   3.7910   3.9802   4.0443   4.0851   4.0953
     4.1653   4.1779   4.2408   4.2795   4.4655   4.4976   4.5570   4.5607
     4.6777   4.7484   5.0479   5.1064   5.2035   5.2242   5.2829   5.3217
     5.3733   5.4044   5.6499   5.6996   5.7784   5.8278   5.9417   5.9795
     6.0297   6.0817   6.2517   6.2744   6.3946   6.4191   6.4326   6.4456
     6.6079   6.6471   6.7802   6.8127   7.0956   7.1229   7.2184   7.2614
     7.4078   7.4602   8.3272   8.3745   8.3957   8.4192   8.7994   8.8793
     8.9723   8.9858   9.0599   9.0650   9.1731   9.2053   9.2390   9.2839
     9.3098   9.3581   9.4964   9.5486   9.7378   9.7837   9.8340   9.8677
    10.0468  10.1264  10.2078  10.2412  10.2948  10.4088  10.6172  10.6860
    10.8337  10.8855  11.0690  11.1408  11.5573  11.6027  11.8206  11.9362
    12.0666  12.0718  12.3045  12.3821  12.4148  12.6004  12.7976  12.8789
    13.3296  13.4061  13.4493  13.4591  13.5491  13.5847  13.6107  13.6696
    13.7973  13.8435  14.0624  14.1512  14.1987  14.2355  14.3765  14.4076
    14.4754  14.5939  14.6808  14.6890  14.7050  14.7922  14.8465  14.8544
    14.9343  15.0288  15.0703  15.1457  15.2141  15.3887  15.4609  15.5993
    15.6481  15.7437  15.9485  15.9826  16.0215  16.0998  16.1570  16.1945
    16.3125  16.4312  16.6218  16.7147  16.7720  16.8511  16.8784  16.9315
    17.1242  17.1584  17.1883  17.2457  17.3152  17.3426  17.4377  17.4756

     occupation numbers 
     1.0000   1.0000   1.0000   1.0000   1.0000   1.0000   1.0000   1.0000
     1.0000   1.0000   1.0000   1.0000   1.0000   1.0000   1.0000   1.0000
     1.0000   1.0000   1.0000   1.0000   1.0000   1.0000   1.0000   1.0000
     1.0000   1.0000   1.0000   1.0000   1.0000   1.0000   1.0000   1.0000
     1.0000   1.0000   1.0000   1.0000   1.0000   1.0000   1.0000   1.0000
     1.0000   1.0000   1.0000   1.0000   1.0000   1.0000   1.0000   1.0000
     1.0000   1.0000   1.0000   1.0000   1.0000   1.0000   1.0000   1.0000
     1.0000   1.0000   1.0000   1.0000   1.0000   1.0000   1.0000   1.0000
     1.0000   1.0000   1.0000   1.0000   1.0000   1.0000   1.0000   1.0000
     1.0000   1.0000   1.0000   1.0000   1.0000   1.0000   1.0000   1.0000
     1.0000   1.0000   1.0000   1.0000   1.0000   1.0000   1.0000   1.0000
     1.0000   1.0000   1.0000   1.0000   1.0000   1.0000   1.0000   1.0000
     1.0000   1.0000   1.0000   1.0000   1.0000   1.0000   1.0000   1.0000
     1.0000   1.0000   1.0000   1.0000   1.0000   1.0000   1.0000   1.0000
     1.0000   1.0000   1.0000   1.0000   1.0000   1.0000   1.0000   1.0000
     1.0000   1.0000   1.0000   1.0000   1.0000   1.0000   1.0000   1.0000
     1.0000   1.0000   1.0004   1.0007   1.0309   1.0390   1.0709   1.0810
     1.0200   0.9408   0.0000   0.0000   0.0000   0.0000   0.0000   0.0000
     0.0000   0.0000   0.0000   0.0000   0.0000   0.0000   0.0000   0.0000
     0.0000   0.0000   0.0000   0.0000   0.0000   0.0000   0.0000   0.0000
     0.0000   0.0000   0.0000   0.0000   0.0000   0.0000   0.0000   0.0000
     0.0000   0.0000   0.0000   0.0000   0.0000   0.0000   0.0000   0.0000
     0.0000   0.0000   0.0000   0.0000   0.0000   0.0000   0.0000   0.0000
     0.0000   0.0000   0.0000   0.0000   0.0000   0.0000   0.0000   0.0000
     0.0000   0.0000   0.0000   0.0000   0.0000   0.0000   0.0000   0.0000
     0.0000   0.0000   0.0000   0.0000   0.0000   0.0000   0.0000   0.0000
     0.0000   0.0000   0.0000   0.0000   0.0000   0.0000   0.0000   0.0000
     0.0000   0.0000   0.0000   0.0000   0.0000   0.0000   0.0000   0.0000
     0.0000   0.0000   0.0000   0.0000   0.0000   0.0000   0.0000   0.0000
     0.0000   0.0000   0.0000   0.0000   0.0000   0.0000   0.0000   0.0000

          k =-1.5806 0.9125 0.1674 ( 23458 PWs)   bands (ev):

   -74.3200 -74.2321 -69.6633 -69.5757 -43.5524 -43.4645 -43.1889 -43.1014
   -42.6370 -42.5490 -38.8310 -38.7436 -38.4442 -38.3567 -38.0800 -37.9925
   -16.8860 -16.8853 -16.8812 -16.8806 -16.8770 -16.8767 -16.8740 -16.8735
   -16.8497 -16.8489 -16.8416 -16.8412 -16.8273 -16.8271 -16.8204 -16.8200
   -13.9139 -13.9116 -13.9046 -13.9043 -13.8994 -13.8990 -13.8943 -13.8933
   -13.8892 -13.8885 -13.8815 -13.8814 -13.8804 -13.8786 -13.8623 -13.8618
   -13.8543 -13.8539 -13.8493 -13.8489 -13.8359 -13.8358 -13.8311 -13.8300
    -4.9649  -4.9398  -4.8480  -4.8183  -4.7703  -4.7323  -4.6281  -4.5785
    -3.4722  -3.4480  -3.2888  -3.2669  -3.0861  -3.0628  -2.8674  -2.8547
    -1.6624  -1.6461  -1.4989  -1.4791  -1.2870  -1.2456  -1.1778  -1.1358
     3.1410   3.2018   3.3057   3.3491   3.4277   3.4866   3.6303   3.6443
     3.6754   3.7341   3.7609   3.7930   3.9839   4.0627   4.0792   4.1216
     4.1699   4.1883   4.2486   4.2808   4.4329   4.4738   4.5257   4.5859
     4.7155   4.7477   5.0533   5.0732   5.1661   5.2105   5.2679   5.3291
     5.3686   5.4524   5.7142   5.7577   5.7970   5.8208   5.9201   5.9525
     6.0425   6.0772   6.2267   6.2574   6.3159   6.3600   6.4492   6.4785
     6.5789   6.6288   6.8653   6.8867   7.0579   7.0912   7.2277   7.2588
     7.4384   7.4809   8.2524   8.3032   8.4527   8.4886   8.8002   8.8796
     8.9167   8.9646   9.0665   9.0984   9.1325   9.1819   9.2841   9.2989
     9.3253   9.3636   9.4719   9.5278   9.7520   9.7849   9.9154   9.9449
    10.0728  10.1189  10.1565  10.2039  10.3174  10.3710  10.5671  10.6308
    10.8504  10.9254  11.0915  11.1175  11.5726  11.6304  11.8409  11.8736
    12.0949  12.1371  12.2887  12.3323  12.3907  12.5476  12.8078  12.8742
    13.3666  13.3966  13.4355  13.4776  13.5149  13.5349  13.6534  13.6926
    13.8797  13.8939  14.0967  14.1506  14.2143  14.2454  14.2708  14.2875
    14.4463  14.5421  14.6034  14.6747  14.7284  14.7845  14.8440  14.9126
    14.9807  15.0198  15.1766  15.2071  15.2658  15.3417  15.4616  15.6124
    15.6542  15.6825  15.9837  16.0106  16.0797  16.1514  16.1964  16.2378
    16.2780  16.3193  16.3897  16.4558  16.9234  16.9310  16.9781  17.0676
    17.1050  17.1478  17.1635  17.2382  17.2884  17.3182  17.4538  17.4785

     occupation numbers 
     1.0000   1.0000   1.0000   1.0000   1.0000   1.0000   1.0000   1.0000
     1.0000   1.0000   1.0000   1.0000   1.0000   1.0000   1.0000   1.0000
     1.0000   1.0000   1.0000   1.0000   1.0000   1.0000   1.0000   1.0000
     1.0000   1.0000   1.0000   1.0000   1.0000   1.0000   1.0000   1.0000
     1.0000   1.0000   1.0000   1.0000   1.0000   1.0000   1.0000   1.0000
     1.0000   1.0000   1.0000   1.0000   1.0000   1.0000   1.0000   1.0000
     1.0000   1.0000   1.0000   1.0000   1.0000   1.0000   1.0000   1.0000
     1.0000   1.0000   1.0000   1.0000   1.0000   1.0000   1.0000   1.0000
     1.0000   1.0000   1.0000   1.0000   1.0000   1.0000   1.0000   1.0000
     1.0000   1.0000   1.0000   1.0000   1.0000   1.0000   1.0000   1.0000
     1.0000   1.0000   1.0000   1.0000   1.0000   1.0000   1.0000   1.0000
     1.0000   1.0000   1.0000   1.0000   1.0000   1.0000   1.0000   1.0000
     1.0000   1.0000   1.0000   1.0000   1.0000   1.0000   1.0000   1.0000
     1.0000   1.0000   1.0000   1.0000   1.0000   1.0000   1.0000   1.0000
     1.0000   1.0000   1.0000   1.0000   1.0000   1.0000   1.0000   1.0000
     1.0000   1.0000   1.0000   1.0000   1.0000   1.0000   1.0000   1.0000
     1.0000   1.0000   1.0017   1.0024   1.0215   1.0297   1.0735   1.0806
     0.9779   0.9005   0.0002   0.0001   0.0000   0.0000   0.0000   0.0000
     0.0000   0.0000   0.0000   0.0000   0.0000   0.0000   0.0000   0.0000
     0.0000   0.0000   0.0000   0.0000   0.0000   0.0000   0.0000   0.0000
     0.0000   0.0000   0.0000   0.0000   0.0000   0.0000   0.0000   0.0000
     0.0000   0.0000   0.0000   0.0000   0.0000   0.0000   0.0000   0.0000
     0.0000   0.0000   0.0000   0.0000   0.0000   0.0000   0.0000   0.0000
     0.0000   0.0000   0.0000   0.0000   0.0000   0.0000   0.0000   0.0000
     0.0000   0.0000   0.0000   0.0000   0.0000   0.0000   0.0000   0.0000
     0.0000   0.0000   0.0000   0.0000   0.0000   0.0000   0.0000   0.0000
     0.0000   0.0000   0.0000   0.0000   0.0000   0.0000   0.0000   0.0000
     0.0000   0.0000   0.0000   0.0000   0.0000   0.0000   0.0000   0.0000
     0.0000   0.0000   0.0000   0.0000   0.0000   0.0000   0.0000   0.0000
     0.0000   0.0000   0.0000   0.0000   0.0000   0.0000   0.0000   0.0000

          k =-3.1612 0.0000 0.2510 ( 23534 PWs)   bands (ev):

   -74.3200 -74.2321 -69.6633 -69.5757 -43.5526 -43.4646 -43.1888 -43.1013
   -42.6372 -42.5492 -38.8312 -38.7439 -38.4441 -38.3566 -38.0803 -37.9928
   -16.8864 -16.8856 -16.8801 -16.8796 -16.8756 -16.8753 -16.8744 -16.8731
   -16.8489 -16.8486 -16.8412 -16.8410 -16.8270 -16.8266 -16.8195 -16.8189
   -13.9139 -13.9123 -13.9054 -13.9036 -13.9019 -13.8988 -13.8939 -13.8927
   -13.8871 -13.8859 -13.8841 -13.8792 -13.8791 -13.8789 -13.8639 -13.8613
   -13.8521 -13.8514 -13.8467 -13.8442 -13.8345 -13.8331 -13.8331 -13.8315
    -3.9926  -3.9787  -3.8939  -3.8776  -3.8453  -3.8268  -3.7256  -3.7013
    -3.0217  -2.9944  -2.9352  -2.9184  -2.8445  -2.8205  -2.7621  -2.7366
    -2.3766  -2.3546  -2.3204  -2.3042  -2.2840  -2.2670  -2.2157  -2.2021
     2.7709   2.8031   2.9286   2.9793   3.0376   3.0743   3.1245   3.1995
     3.3200   3.3403   3.4044   3.4523   3.4907   3.5238   3.5717   3.6128
     3.6956   3.7372   3.7706   3.7964   4.0112   4.0313   4.0886   4.1258
     4.2022   4.2303   4.2524   4.2985   4.3584   4.3875   4.4250   4.4649
     4.6530   4.6733   4.8370   4.8854   5.0583   5.1077   5.2464   5.3100
     5.5894   5.6292   5.6781   5.7208   5.9216   5.9369   6.0126   6.0331
     6.2619   6.2937   6.4106   6.4336   6.6442   6.6624   7.0870   7.1392
     7.3701   7.4184   8.3709   8.3765   8.6013   8.6144   8.9852   9.0232
     9.0626   9.0984   9.1424   9.2002   9.2818   9.3123   9.3608   9.3999
     9.4716   9.4788   9.7663   9.7810   9.9433   9.9761  10.1519  10.2025
    10.2984  10.3524  10.5223  10.5786  10.8194  10.8403  10.8741  10.9299
    11.1372  11.1838  11.4329  11.5277  12.2606  12.2858  12.4741  12.5137
    12.6116  12.6347  12.6794  12.8069  12.8748  12.9853  13.0402  13.0877
    13.1757  13.2206  13.2996  13.3578  13.5326  13.6632  13.8147  14.0151
    14.1462  14.1861  14.3326  14.3799  14.5937  14.6172  14.6611  14.6826
    15.0485  15.0925  15.1689  15.1861  15.2967  15.3309  15.6659  15.7443
    15.8949  15.9641  16.0938  16.2063  16.3781  16.4614  16.5707  16.6001
    16.7674  16.8199  17.1004  17.1580  17.2176  17.2714  17.4363  17.4722
    17.5165  17.5786  17.6109  17.6428  17.7313  17.7526  17.9366  17.9943
    18.0610  18.1052  18.1516  18.2053  18.2782  18.3107  18.4386  18.4541

     occupation numbers 
     1.0000   1.0000   1.0000   1.0000   1.0000   1.0000   1.0000   1.0000
     1.0000   1.0000   1.0000   1.0000   1.0000   1.0000   1.0000   1.0000
     1.0000   1.0000   1.0000   1.0000   1.0000   1.0000   1.0000   1.0000
     1.0000   1.0000   1.0000   1.0000   1.0000   1.0000   1.0000   1.0000
     1.0000   1.0000   1.0000   1.0000   1.0000   1.0000   1.0000   1.0000
     1.0000   1.0000   1.0000   1.0000   1.0000   1.0000   1.0000   1.0000
     1.0000   1.0000   1.0000   1.0000   1.0000   1.0000   1.0000   1.0000
     1.0000   1.0000   1.0000   1.0000   1.0000   1.0000   1.0000   1.0000
     1.0000   1.0000   1.0000   1.0000   1.0000   1.0000   1.0000   1.0000
     1.0000   1.0000   1.0000   1.0000   1.0000   1.0000   1.0000   1.0000
     1.0000   1.0000   1.0000   1.0000   1.0000   1.0000   1.0000   1.0000
     1.0000   1.0000   1.0000   1.0000   1.0000   1.0000   1.0000   1.0000
     1.0000   1.0000   1.0000   1.0000   1.0000   1.0000   1.0000   1.0000
     1.0000   1.0000   1.0000   1.0000   1.0000   1.0000   1.0000   1.0000
     1.0000   1.0000   1.0000   1.0000   1.0000   1.0000   1.0000   1.0000
     1.0000   1.0000   1.0000   1.0000   1.0000   1.0000   1.0000   1.0000
     1.0000   1.0000   1.0000   1.0000   1.0000   1.0000   1.0286   1.0443
     1.0562   1.0067   0.0000   0.0000   0.0000   0.0000   0.0000   0.0000
     0.0000   0.0000   0.0000   0.0000   0.0000   0.0000   0.0000   0.0000
     0.0000   0.0000   0.0000   0.0000   0.0000   0.0000   0.0000   0.0000
     0.0000   0.0000   0.0000   0.0000   0.0000   0.0000   0.0000   0.0000
     0.0000   0.0000   0.0000   0.0000   0.0000   0.0000   0.0000   0.0000
     0.0000   0.0000   0.0000   0.0000   0.0000   0.0000   0.0000   0.0000
     0.0000   0.0000   0.0000   0.0000   0.0000   0.0000   0.0000   0.0000
     0.0000   0.0000   0.0000   0.0000   0.0000   0.0000   0.0000   0.0000
     0.0000   0.0000   0.0000   0.0000   0.0000   0.0000   0.0000   0.0000
     0.0000   0.0000   0.0000   0.0000   0.0000   0.0000   0.0000   0.0000
     0.0000   0.0000   0.0000   0.0000   0.0000   0.0000   0.0000   0.0000
     0.0000   0.0000   0.0000   0.0000   0.0000   0.0000   0.0000   0.0000
     0.0000   0.0000   0.0000   0.0000   0.0000   0.0000   0.0000   0.0000

          k =-4.7417-0.9125 0.3347 ( 23538 PWs)   bands (ev):

   -74.3200 -74.2321 -69.6633 -69.5757 -43.5526 -43.4646 -43.1888 -43.1013
   -42.6372 -42.5492 -38.8312 -38.7439 -38.4441 -38.3566 -38.0803 -37.9928
   -16.8856 -16.8855 -16.8806 -16.8805 -16.8766 -16.8757 -16.8732 -16.8722
   -16.8486 -16.8480 -16.8413 -16.8413 -16.8277 -16.8277 -16.8191 -16.8181
   -13.9130 -13.9099 -13.9081 -13.9057 -13.9023 -13.9014 -13.8914 -13.8893
   -13.8872 -13.8866 -13.8815 -13.8795 -13.8794 -13.8783 -13.8626 -13.8618
   -13.8565 -13.8558 -13.8465 -13.8437 -13.8334 -13.8333 -13.8315 -13.8300
    -3.9932  -3.9746  -3.8967  -3.8754  -3.8483  -3.8220  -3.7319  -3.6978
    -3.0264  -3.0026  -2.9146  -2.8951  -2.8679  -2.8422  -2.7529  -2.7318
    -2.3877  -2.3560  -2.3184  -2.2956  -2.2859  -2.2637  -2.2178  -2.2019
     2.7612   2.8247   2.9435   2.9600   3.0265   3.0656   3.1310   3.2158
     3.3304   3.3631   3.4055   3.4195   3.4708   3.5265   3.5589   3.6319
     3.6795   3.7282   3.7588   3.7960   3.9957   4.0722   4.0922   4.1166
     4.2246   4.2333   4.2798   4.3198   4.3341   4.3598   4.4233   4.4892
     4.6747   4.7187   4.7731   4.8289   5.0539   5.0861   5.2314   5.3004
     5.6021   5.6743   5.7421   5.8263   5.8596   5.8835   6.0235   6.0769
     6.1795   6.2409   6.4719   6.5183   6.5393   6.5970   7.1215   7.1619
     7.3926   7.4368   8.3187   8.3404   8.6190   8.6541   8.9710   9.0016
     9.0844   9.1057   9.1365   9.1986   9.3039   9.3310   9.3467   9.3825
     9.4672   9.4860   9.8393   9.8788   9.9382   9.9605   9.9846  10.0311
    10.4008  10.4319  10.5843  10.6046  10.7565  10.7894  10.9003  10.9681
    11.0857  11.1249  11.4932  11.5804  12.2122  12.2801  12.4678  12.5384
    12.5876  12.6343  12.7045  12.8073  12.8617  13.0156  13.0524  13.0802
    13.1845  13.2206  13.2766  13.3747  13.4943  13.5873  13.8912  14.1175
    14.1444  14.1659  14.2601  14.2784  14.6486  14.6748  14.7060  14.8271
    15.0321  15.0616  15.1281  15.1429  15.2284  15.2701  15.6555  15.7488
    15.9808  16.0264  16.1905  16.2344  16.3654  16.4188  16.5827  16.6006
    16.6265  16.7263  17.0034  17.0370  17.2013  17.2730  17.4410  17.5004
    17.5357  17.5855  17.6693  17.7161  17.8370  17.8936  17.9737  18.0294
    18.0853  18.1442  18.1653  18.2011  18.2315  18.2378  18.5906  18.6682

     occupation numbers 
     1.0000   1.0000   1.0000   1.0000   1.0000   1.0000   1.0000   1.0000
     1.0000   1.0000   1.0000   1.0000   1.0000   1.0000   1.0000   1.0000
     1.0000   1.0000   1.0000   1.0000   1.0000   1.0000   1.0000   1.0000
     1.0000   1.0000   1.0000   1.0000   1.0000   1.0000   1.0000   1.0000
     1.0000   1.0000   1.0000   1.0000   1.0000   1.0000   1.0000   1.0000
     1.0000   1.0000   1.0000   1.0000   1.0000   1.0000   1.0000   1.0000
     1.0000   1.0000   1.0000   1.0000   1.0000   1.0000   1.0000   1.0000
     1.0000   1.0000   1.0000   1.0000   1.0000   1.0000   1.0000   1.0000
     1.0000   1.0000   1.0000   1.0000   1.0000   1.0000   1.0000   1.0000
     1.0000   1.0000   1.0000   1.0000   1.0000   1.0000   1.0000   1.0000
     1.0000   1.0000   1.0000   1.0000   1.0000   1.0000   1.0000   1.0000
     1.0000   1.0000   1.0000   1.0000   1.0000   1.0000   1.0000   1.0000
     1.0000   1.0000   1.0000   1.0000   1.0000   1.0000   1.0000   1.0000
     1.0000   1.0000   1.0000   1.0000   1.0000   1.0000   1.0000   1.0000
     1.0000   1.0000   1.0000   1.0000   1.0000   1.0000   1.0000   1.0000
     1.0000   1.0000   1.0000   1.0000   1.0000   1.0000   1.0000   1.0000
     1.0000   1.0000   1.0000   1.0000   1.0000   1.0000   1.0386   1.0520
     1.0366   0.9804   0.0000   0.0000   0.0000   0.0000   0.0000   0.0000
     0.0000   0.0000   0.0000   0.0000   0.0000   0.0000   0.0000   0.0000
     0.0000   0.0000   0.0000   0.0000   0.0000   0.0000   0.0000   0.0000
     0.0000   0.0000   0.0000   0.0000   0.0000   0.0000   0.0000   0.0000
     0.0000   0.0000   0.0000   0.0000   0.0000   0.0000   0.0000   0.0000
     0.0000   0.0000   0.0000   0.0000   0.0000   0.0000   0.0000   0.0000
     0.0000   0.0000   0.0000   0.0000   0.0000   0.0000   0.0000   0.0000
     0.0000   0.0000   0.0000   0.0000   0.0000   0.0000   0.0000   0.0000
     0.0000   0.0000   0.0000   0.0000   0.0000   0.0000   0.0000   0.0000
     0.0000   0.0000   0.0000   0.0000   0.0000   0.0000   0.0000   0.0000
     0.0000   0.0000   0.0000   0.0000   0.0000   0.0000   0.0000   0.0000
     0.0000   0.0000   0.0000   0.0000   0.0000   0.0000   0.0000   0.0000
     0.0000   0.0000   0.0000   0.0000   0.0000   0.0000   0.0000   0.0000

          k = 0.0000 3.6502 0.1674 ( 23516 PWs)   bands (ev):

   -74.3200 -74.2321 -69.6633 -69.5757 -43.5526 -43.4646 -43.1888 -43.1013
   -42.6372 -42.5492 -38.8312 -38.7439 -38.4441 -38.3566 -38.0803 -37.9928
   -16.8853 -16.8853 -16.8810 -16.8809 -16.8768 -16.8768 -16.8719 -16.8718
   -16.8478 -16.8478 -16.8416 -16.8415 -16.8285 -16.8285 -16.8179 -16.8179
   -13.9137 -13.9136 -13.9070 -13.9070 -13.9029 -13.9029 -13.8914 -13.8914
   -13.8828 -13.8828 -13.8788 -13.8788 -13.8781 -13.8781 -13.8631 -13.8631
   -13.8615 -13.8615 -13.8441 -13.8441 -13.8314 -13.8314 -13.8290 -13.8290
    -3.8231  -3.8179  -3.7796  -3.7764  -3.7229  -3.7153  -3.6614  -3.6549
    -3.1956  -3.1622  -3.1574  -3.1315  -3.0501  -3.0249  -3.0120  -2.9710
    -2.3518  -2.3516  -2.2998  -2.2993  -2.1549  -2.1514  -2.0900  -2.0875
     2.4489   2.4882   2.5788   2.5989   2.8197   2.8230   2.9791   2.9813
     3.2372   3.3158   3.5478   3.5570   3.6671   3.7433   3.9337   3.9716
     4.0208   4.0252   4.0766   4.0992   4.1337   4.1566   4.2098   4.2423
     4.3573   4.4378   4.5219   4.5877   4.6432   4.7095   4.7599   4.7721
     4.8042   4.8193   4.8829   4.9256   5.0058   5.0229   5.3544   5.4105
     5.4938   5.5066   5.8639   5.8845   5.8918   5.9124   6.0637   6.0685
     6.2441   6.2626   6.4591   6.4714   6.6988   6.7347   7.1015   7.1564
     7.2630   7.3127   8.2373   8.2395   8.4220   8.4298   8.6042   8.6737
     8.7930   8.8368   8.8939   8.9344   9.0555   9.0806   9.1410   9.2935
     9.3046   9.3812   9.4183   9.4804   9.6214   9.7062   9.8191   9.8215
    10.0217  10.0596  10.1079  10.1259  10.5296  10.5591  10.6334  10.7049
    10.8397  10.8463  11.1175  11.1177  11.5079  11.5310  11.5886  11.5999
    11.7069  11.7586  12.0091  12.0103  12.5516  12.5910  13.1279  13.1986
    13.5259  13.5418  13.7082  13.7150  14.2462  14.3358  14.4522  14.4807
    14.6812  14.7648  14.8988  14.9464  15.5374  15.5680  15.6901  15.7331
    16.0488  16.0517  16.2502  16.2778  16.4738  16.4857  16.5538  16.5685
    16.7013  16.7392  16.8173  16.8725  17.0312  17.0890  17.1392  17.1704
    17.5134  17.5464  17.6670  17.7045  17.8406  17.8483  17.9186  17.9372
    18.0512  18.0555  18.0886  18.0940  18.1242  18.1260  18.1683  18.2011
    18.2516  18.3075  18.3305  18.3498  18.3837  18.4108  18.4846  18.5498

     occupation numbers 
     1.0000   1.0000   1.0000   1.0000   1.0000   1.0000   1.0000   1.0000
     1.0000   1.0000   1.0000   1.0000   1.0000   1.0000   1.0000   1.0000
     1.0000   1.0000   1.0000   1.0000   1.0000   1.0000   1.0000   1.0000
     1.0000   1.0000   1.0000   1.0000   1.0000   1.0000   1.0000   1.0000
     1.0000   1.0000   1.0000   1.0000   1.0000   1.0000   1.0000   1.0000
     1.0000   1.0000   1.0000   1.0000   1.0000   1.0000   1.0000   1.0000
     1.0000   1.0000   1.0000   1.0000   1.0000   1.0000   1.0000   1.0000
     1.0000   1.0000   1.0000   1.0000   1.0000   1.0000   1.0000   1.0000
     1.0000   1.0000   1.0000   1.0000   1.0000   1.0000   1.0000   1.0000
     1.0000   1.0000   1.0000   1.0000   1.0000   1.0000   1.0000   1.0000
     1.0000   1.0000   1.0000   1.0000   1.0000   1.0000   1.0000   1.0000
     1.0000   1.0000   1.0000   1.0000   1.0000   1.0000   1.0000   1.0000
     1.0000   1.0000   1.0000   1.0000   1.0000   1.0000   1.0000   1.0000
     1.0000   1.0000   1.0000   1.0000   1.0000   1.0000   1.0000   1.0000
     1.0000   1.0000   1.0000   1.0000   1.0000   1.0000   1.0000   1.0000
     1.0000   1.0000   1.0000   1.0000   1.0000   1.0000   1.0000   1.0000
     1.0000   1.0000   1.0000   1.0000   1.0001   1.0002   1.0326   1.0501
     1.0813   1.0814   0.0002   0.0002   0.0000   0.0000   0.0000   0.0000
     0.0000   0.0000   0.0000   0.0000   0.0000   0.0000   0.0000   0.0000
     0.0000   0.0000   0.0000   0.0000   0.0000   0.0000   0.0000   0.0000
     0.0000   0.0000   0.0000   0.0000   0.0000   0.0000   0.0000   0.0000
     0.0000   0.0000   0.0000   0.0000   0.0000   0.0000   0.0000   0.0000
     0.0000   0.0000   0.0000   0.0000   0.0000   0.0000   0.0000   0.0000
     0.0000   0.0000   0.0000   0.0000   0.0000   0.0000   0.0000   0.0000
     0.0000   0.0000   0.0000   0.0000   0.0000   0.0000   0.0000   0.0000
     0.0000   0.0000   0.0000   0.0000   0.0000   0.0000   0.0000   0.0000
     0.0000   0.0000   0.0000   0.0000   0.0000   0.0000   0.0000   0.0000
     0.0000   0.0000   0.0000   0.0000   0.0000   0.0000   0.0000   0.0000
     0.0000   0.0000   0.0000   0.0000   0.0000   0.0000   0.0000   0.0000
     0.0000   0.0000   0.0000   0.0000   0.0000   0.0000   0.0000   0.0000

          k =-1.5806 2.7376 0.2510 ( 23534 PWs)   bands (ev):

   -74.3200 -74.2321 -69.6633 -69.5757 -43.5526 -43.4646 -43.1888 -43.1013
   -42.6372 -42.5492 -38.8312 -38.7439 -38.4441 -38.3566 -38.0803 -37.9928
   -16.8856 -16.8855 -16.8806 -16.8805 -16.8766 -16.8757 -16.8732 -16.8722
   -16.8486 -16.8479 -16.8413 -16.8413 -16.8277 -16.8277 -16.8190 -16.8181
   -13.9130 -13.9099 -13.9081 -13.9057 -13.9023 -13.9014 -13.8913 -13.8893
   -13.8872 -13.8866 -13.8815 -13.8795 -13.8794 -13.8783 -13.8626 -13.8617
   -13.8565 -13.8558 -13.8465 -13.8437 -13.8334 -13.8333 -13.8315 -13.8300
    -3.9911  -3.9775  -3.8942  -3.8784  -3.8445  -3.8255  -3.7267  -3.7023
    -3.0217  -2.9944  -2.9353  -2.9183  -2.8447  -2.8208  -2.7622  -2.7365
    -2.3837  -2.3607  -2.3150  -2.3002  -2.2814  -2.2665  -2.2161  -2.2027
     2.7622   2.8242   2.9426   2.9602   3.0263   3.0805   3.1384   3.1816
     3.3207   3.3400   3.4034   3.4391   3.4924   3.5396   3.5617   3.6391
     3.6810   3.7390   3.7622   3.7948   3.9854   4.0453   4.0995   4.1285
     4.2045   4.2326   4.2547   4.2893   4.3622   4.3818   4.4289   4.4662
     4.6411   4.6905   4.8298   4.8883   5.0636   5.1016   5.2552   5.3009
     5.5936   5.6303   5.6852   5.7118   5.9229   5.9356   6.0109   6.0313
     6.2523   6.3039   6.4081   6.4356   6.6444   6.6629   7.0923   7.1333
     7.3727   7.4167   8.3648   8.3825   8.5921   8.6216   8.9846   9.0247
     9.0632   9.1006   9.1434   9.1985   9.2770   9.3150   9.3612   9.3981
     9.4692   9.4830   9.7515   9.7943   9.9438   9.9724  10.1543  10.1991
    10.3142  10.3407  10.5433  10.5515  10.8066  10.8508  10.8842  10.9253
    11.1288  11.1911  11.4384  11.5211  12.2357  12.3069  12.4748  12.5220
    12.6090  12.6471  12.6934  12.7727  12.8680  12.9961  13.0399  13.0986
    13.1823  13.1989  13.3047  13.3673  13.5397  13.6599  13.8303  14.0109
    14.1414  14.1900  14.3253  14.3767  14.6000  14.6102  14.6666  14.6827
    15.0385  15.0962  15.1625  15.2045  15.2908  15.3373  15.6764  15.7325
    15.8908  15.9620  16.0913  16.2157  16.3850  16.4561  16.5768  16.6056
    16.7540  16.8227  17.1072  17.1722  17.1925  17.2616  17.4051  17.4851
    17.5229  17.5699  17.6146  17.6545  17.7085  17.7630  17.9356  18.0070
    18.0595  18.1022  18.1666  18.2013  18.2883  18.3127  18.4278  18.4714

     occupation numbers 
     1.0000   1.0000   1.0000   1.0000   1.0000   1.0000   1.0000   1.0000
     1.0000   1.0000   1.0000   1.0000   1.0000   1.0000   1.0000   1.0000
     1.0000   1.0000   1.0000   1.0000   1.0000   1.0000   1.0000   1.0000
     1.0000   1.0000   1.0000   1.0000   1.0000   1.0000   1.0000   1.0000
     1.0000   1.0000   1.0000   1.0000   1.0000   1.0000   1.0000   1.0000
     1.0000   1.0000   1.0000   1.0000   1.0000   1.0000   1.0000   1.0000
     1.0000   1.0000   1.0000   1.0000   1.0000   1.0000   1.0000   1.0000
     1.0000   1.0000   1.0000   1.0000   1.0000   1.0000   1.0000   1.0000
     1.0000   1.0000   1.0000   1.0000   1.0000   1.0000   1.0000   1.0000
     1.0000   1.0000   1.0000   1.0000   1.0000   1.0000   1.0000   1.0000
     1.0000   1.0000   1.0000   1.0000   1.0000   1.0000   1.0000   1.0000
     1.0000   1.0000   1.0000   1.0000   1.0000   1.0000   1.0000   1.0000
     1.0000   1.0000   1.0000   1.0000   1.0000   1.0000   1.0000   1.0000
     1.0000   1.0000   1.0000   1.0000   1.0000   1.0000   1.0000   1.0000
     1.0000   1.0000   1.0000   1.0000   1.0000   1.0000   1.0000   1.0000
     1.0000   1.0000   1.0000   1.0000   1.0000   1.0000   1.0000   1.0000
     1.0000   1.0000   1.0000   1.0000   1.0000   1.0000   1.0300   1.0424
     1.0542   1.0090   0.0000   0.0000   0.0000   0.0000   0.0000   0.0000
     0.0000   0.0000   0.0000   0.0000   0.0000   0.0000   0.0000   0.0000
     0.0000   0.0000   0.0000   0.0000   0.0000   0.0000   0.0000   0.0000
     0.0000   0.0000   0.0000   0.0000   0.0000   0.0000   0.0000   0.0000
     0.0000   0.0000   0.0000   0.0000   0.0000   0.0000   0.0000   0.0000
     0.0000   0.0000   0.0000   0.0000   0.0000   0.0000   0.0000   0.0000
     0.0000   0.0000   0.0000   0.0000   0.0000   0.0000   0.0000   0.0000
     0.0000   0.0000   0.0000   0.0000   0.0000   0.0000   0.0000   0.0000
     0.0000   0.0000   0.0000   0.0000   0.0000   0.0000   0.0000   0.0000
     0.0000   0.0000   0.0000   0.0000   0.0000   0.0000   0.0000   0.0000
     0.0000   0.0000   0.0000   0.0000   0.0000   0.0000   0.0000   0.0000
     0.0000   0.0000   0.0000   0.0000   0.0000   0.0000   0.0000   0.0000
     0.0000   0.0000   0.0000   0.0000   0.0000   0.0000   0.0000   0.0000

          k =-3.1612 1.8251 0.3347 ( 23494 PWs)   bands (ev):

   -74.3200 -74.2321 -69.6633 -69.5757 -43.5526 -43.4646 -43.1888 -43.1013
   -42.6372 -42.5492 -38.8312 -38.7438 -38.4441 -38.3566 -38.0803 -37.9928
   -16.8861 -16.8860 -16.8798 -16.8798 -16.8754 -16.8754 -16.8735 -16.8735
[...]
    10.0728  10.1189  10.1565  10.2039  10.3174  10.3710  10.5671  10.6307
    10.8504  10.9255  11.0915  11.1175  11.5726  11.6304  11.8409  11.8736
    12.0949  12.1371  12.2887  12.3323  12.3907  12.5476  12.8078  12.8742
    13.3666  13.3966  13.4355  13.4776  13.5149  13.5349  13.6534  13.6926
    13.8797  13.8939  14.0967  14.1506  14.2143  14.2454  14.2708  14.2875
    14.4463  14.5420  14.6034  14.6748  14.7284  14.7845  14.8440  14.9126
    14.9807  15.0198  15.1766  15.2071  15.2658  15.3417  15.4616  15.6124
    15.6542  15.6825  15.9837  16.0106  16.0797  16.1514  16.1964  16.2378
    16.2780  16.3193  16.3897  16.4558  16.9234  16.9310  16.9781  17.0676
    17.1050  17.1478  17.1635  17.2382  17.2884  17.3182  17.4538  17.4785

     occupation numbers 
     1.0000   1.0000   1.0000   1.0000   1.0000   1.0000   1.0000   1.0000
     1.0000   1.0000   1.0000   1.0000   1.0000   1.0000   1.0000   1.0000
     1.0000   1.0000   1.0000   1.0000   1.0000   1.0000   1.0000   1.0000
     1.0000   1.0000   1.0000   1.0000   1.0000   1.0000   1.0000   1.0000
     1.0000   1.0000   1.0000   1.0000   1.0000   1.0000   1.0000   1.0000
     1.0000   1.0000   1.0000   1.0000   1.0000   1.0000   1.0000   1.0000
     1.0000   1.0000   1.0000   1.0000   1.0000   1.0000   1.0000   1.0000
     1.0000   1.0000   1.0000   1.0000   1.0000   1.0000   1.0000   1.0000
     1.0000   1.0000   1.0000   1.0000   1.0000   1.0000   1.0000   1.0000
     1.0000   1.0000   1.0000   1.0000   1.0000   1.0000   1.0000   1.0000
     1.0000   1.0000   1.0000   1.0000   1.0000   1.0000   1.0000   1.0000
     1.0000   1.0000   1.0000   1.0000   1.0000   1.0000   1.0000   1.0000
     1.0000   1.0000   1.0000   1.0000   1.0000   1.0000   1.0000   1.0000
     1.0000   1.0000   1.0000   1.0000   1.0000   1.0000   1.0000   1.0000
     1.0000   1.0000   1.0000   1.0000   1.0000   1.0000   1.0000   1.0000
     1.0000   1.0000   1.0000   1.0000   1.0000   1.0000   1.0000   1.0000
     1.0000   1.0000   1.0017   1.0024   1.0215   1.0297   1.0735   1.0806
     0.9779   0.9005   0.0002   0.0001   0.0000   0.0000   0.0000   0.0000
     0.0000   0.0000   0.0000   0.0000   0.0000   0.0000   0.0000   0.0000
     0.0000   0.0000   0.0000   0.0000   0.0000   0.0000   0.0000   0.0000
     0.0000   0.0000   0.0000   0.0000   0.0000   0.0000   0.0000   0.0000
     0.0000   0.0000   0.0000   0.0000   0.0000   0.0000   0.0000   0.0000
     0.0000   0.0000   0.0000   0.0000   0.0000   0.0000   0.0000   0.0000
     0.0000   0.0000   0.0000   0.0000   0.0000   0.0000   0.0000   0.0000
     0.0000   0.0000   0.0000   0.0000   0.0000   0.0000   0.0000   0.0000
     0.0000   0.0000   0.0000   0.0000   0.0000   0.0000   0.0000   0.0000
     0.0000   0.0000   0.0000   0.0000   0.0000   0.0000   0.0000   0.0000
     0.0000   0.0000   0.0000   0.0000   0.0000   0.0000   0.0000   0.0000
     0.0000   0.0000   0.0000   0.0000   0.0000   0.0000   0.0000   0.0000
     0.0000   0.0000   0.0000   0.0000   0.0000   0.0000   0.0000   0.0000

          k = 3.1612 1.8251 0.5858 ( 23506 PWs)   bands (ev):

   -74.3200 -74.2321 -69.6633 -69.5757 -43.5526 -43.4646 -43.1888 -43.1013
   -42.6372 -42.5492 -38.8312 -38.7439 -38.4441 -38.3566 -38.0803 -37.9928
   -16.8861 -16.8860 -16.8798 -16.8798 -16.8754 -16.8754 -16.8735 -16.8735
   -16.8489 -16.8488 -16.8410 -16.8409 -16.8269 -16.8269 -16.8191 -16.8190
   -13.9147 -13.9146 -13.9061 -13.9060 -13.9004 -13.9003 -13.8936 -13.8935
   -13.8840 -13.8839 -13.8829 -13.8829 -13.8779 -13.8778 -13.8629 -13.8628
   -13.8512 -13.8511 -13.8473 -13.8472 -13.8326 -13.8326 -13.8304 -13.8304
    -3.8298  -3.8219  -3.7855  -3.7773  -3.7192  -3.7118  -3.6599  -3.6499
    -3.1990  -3.1750  -3.1377  -3.1170  -3.0619  -3.0463  -2.9983  -2.9663
    -2.3520  -2.3394  -2.3082  -2.3024  -2.1559  -2.1495  -2.0900  -2.0882
     2.4506   2.4864   2.5547   2.6158   2.8121   2.8394   2.9304   3.0224
     3.2621   3.3098   3.5351   3.5816   3.6731   3.7408   3.8562   3.8974
     4.0081   4.0667   4.1398   4.1512   4.1693   4.1996   4.2149   4.2394
     4.3608   4.3961   4.4968   4.5433   4.6475   4.6646   4.6973   4.7667
     4.7891   4.8436   4.8987   4.9443   5.0861   5.1189   5.2665   5.3023
     5.5325   5.5642   5.8176   5.8716   5.9489   5.9705   6.0571   6.0922
     6.1990   6.2489   6.4057   6.4464   6.7613   6.7934   7.0731   7.0983
     7.2520   7.3150   8.2157   8.2995   8.4734   8.5100   8.6103   8.6820
     8.7590   8.7940   8.8675   8.9121   9.0231   9.0778   9.1941   9.2469
     9.3336   9.3872   9.4282   9.4846   9.5829   9.6702   9.6965   9.7290
    10.0850  10.1102  10.2029  10.2592  10.4813  10.5217  10.6832  10.7101
    10.8530  10.8927  11.1220  11.1573  11.4167  11.4891  11.5122  11.5322
    11.7111  11.7826  11.9622  12.0386  12.5898  12.6535  13.1543  13.2014
    13.3739  13.5159  13.7466  13.8790  14.2228  14.2675  14.4710  14.4966
    14.7089  14.7879  14.9479  15.0144  15.3144  15.3789  15.7086  15.7676
    16.0501  16.0676  16.3080  16.3550  16.4238  16.4698  16.5288  16.5539
    16.7749  16.8115  16.9081  16.9238  17.0177  17.0525  17.1505  17.2158
    17.4787  17.5843  17.6557  17.7362  17.7599  17.8557  17.8851  17.9039
    17.9910  18.0046  18.0461  18.1088  18.1422  18.1582  18.2023  18.2420
    18.2572  18.2909  18.3285  18.3527  18.3653  18.4087  18.5231  18.5960

     occupation numbers 
     1.0000   1.0000   1.0000   1.0000   1.0000   1.0000   1.0000   1.0000
     1.0000   1.0000   1.0000   1.0000   1.0000   1.0000   1.0000   1.0000
     1.0000   1.0000   1.0000   1.0000   1.0000   1.0000   1.0000   1.0000
     1.0000   1.0000   1.0000   1.0000   1.0000   1.0000   1.0000   1.0000
     1.0000   1.0000   1.0000   1.0000   1.0000   1.0000   1.0000   1.0000
     1.0000   1.0000   1.0000   1.0000   1.0000   1.0000   1.0000   1.0000
     1.0000   1.0000   1.0000   1.0000   1.0000   1.0000   1.0000   1.0000
     1.0000   1.0000   1.0000   1.0000   1.0000   1.0000   1.0000   1.0000
     1.0000   1.0000   1.0000   1.0000   1.0000   1.0000   1.0000   1.0000
     1.0000   1.0000   1.0000   1.0000   1.0000   1.0000   1.0000   1.0000
     1.0000   1.0000   1.0000   1.0000   1.0000   1.0000   1.0000   1.0000
     1.0000   1.0000   1.0000   1.0000   1.0000   1.0000   1.0000   1.0000
     1.0000   1.0000   1.0000   1.0000   1.0000   1.0000   1.0000   1.0000
     1.0000   1.0000   1.0000   1.0000   1.0000   1.0000   1.0000   1.0000
     1.0000   1.0000   1.0000   1.0000   1.0000   1.0000   1.0000   1.0000
     1.0000   1.0000   1.0000   1.0000   1.0000   1.0000   1.0000   1.0000
     1.0000   1.0000   1.0000   1.0000   1.0003   1.0005   1.0250   1.0317
     1.0794   1.0809   0.0003   0.0001   0.0000   0.0000   0.0000   0.0000
     0.0000   0.0000   0.0000   0.0000   0.0000   0.0000   0.0000   0.0000
     0.0000   0.0000   0.0000   0.0000   0.0000   0.0000   0.0000   0.0000
     0.0000   0.0000   0.0000   0.0000   0.0000   0.0000   0.0000   0.0000
     0.0000   0.0000   0.0000   0.0000   0.0000   0.0000   0.0000   0.0000
     0.0000   0.0000   0.0000   0.0000   0.0000   0.0000   0.0000   0.0000
     0.0000   0.0000   0.0000   0.0000   0.0000   0.0000   0.0000   0.0000
     0.0000   0.0000   0.0000   0.0000   0.0000   0.0000   0.0000   0.0000
     0.0000   0.0000   0.0000   0.0000   0.0000   0.0000   0.0000   0.0000
     0.0000   0.0000   0.0000   0.0000   0.0000   0.0000   0.0000   0.0000
     0.0000   0.0000   0.0000   0.0000   0.0000   0.0000   0.0000   0.0000
     0.0000   0.0000   0.0000   0.0000   0.0000   0.0000   0.0000   0.0000
     0.0000   0.0000   0.0000   0.0000   0.0000   0.0000   0.0000   0.0000

          k = 1.5806 0.9125 0.6695 ( 23491 PWs)   bands (ev):

   -74.3200 -74.2321 -69.6633 -69.5757 -43.5524 -43.4645 -43.1889 -43.1014
   -42.6370 -42.5490 -38.8310 -38.7436 -38.4442 -38.3567 -38.0800 -37.9925
   -16.8861 -16.8854 -16.8812 -16.8807 -16.8771 -16.8767 -16.8741 -16.8736
   -16.8497 -16.8489 -16.8416 -16.8412 -16.8274 -16.8272 -16.8205 -16.8200
   -13.9139 -13.9116 -13.9047 -13.9044 -13.8994 -13.8990 -13.8943 -13.8934
   -13.8893 -13.8886 -13.8816 -13.8815 -13.8805 -13.8786 -13.8624 -13.8619
   -13.8543 -13.8539 -13.8494 -13.8489 -13.8360 -13.8358 -13.8312 -13.8300
    -4.9597  -4.9467  -4.8414  -4.8267  -4.7593  -4.7419  -4.6137  -4.5912
    -3.4458  -3.4110  -3.3576  -3.3280  -3.0046  -2.9815  -2.9226  -2.8998
    -1.5980  -1.5871  -1.5751  -1.5650  -1.2303  -1.2133  -1.1883  -1.1707
     3.1376   3.1999   3.3141   3.3579   3.4489   3.4986   3.5650   3.6011
     3.6649   3.7426   3.8014   3.8423   3.9817   4.0392   4.0732   4.0891
     4.1651   4.2035   4.2541   4.3217   4.4405   4.4706   4.5390   4.5897
     4.7016   4.7252   5.0410   5.0959   5.1693   5.2120   5.2769   5.3112
     5.3625   5.3923   5.7034   5.7505   5.8099   5.8477   5.9344   5.9536
     6.1106   6.1451   6.1689   6.1919   6.3537   6.3718   6.4904   6.5074
     6.6182   6.6612   6.6920   6.7256   7.1275   7.1745   7.2315   7.2796
     7.4173   7.4652   8.2467   8.2929   8.4898   8.5209   8.8015   8.8790
     8.8996   8.9415   9.0656   9.1064   9.1685   9.1911   9.2540   9.2797
     9.2998   9.3625   9.4841   9.5455   9.7869   9.8140   9.8322   9.8754
    10.0447  10.0494  10.2335  10.2463  10.3832  10.4030  10.5550  10.6336
    10.8659  10.9362  11.0625  11.1104  11.5615  11.6107  11.7985  11.8474
    12.1216  12.1535  12.2980  12.3558  12.4344  12.5293  12.8170  12.8583
    13.2956  13.4241  13.4617  13.5040  13.5812  13.6136  13.6755  13.7030
    13.7436  13.7785  14.0007  14.1415  14.1807  14.2292  14.2768  14.3440
    14.4529  14.4874  14.6433  14.7182  14.7323  14.8492  14.9017  14.9609
    14.9896  15.0320  15.1748  15.2211  15.2649  15.3603  15.4676  15.6532
    15.6801  15.7707  15.9188  15.9661  16.0252  16.0707  16.2043  16.2699
    16.3052  16.3645  16.4047  16.5109  16.5329  16.6443  16.8720  16.9475
    16.9946  17.0840  17.1405  17.2077  17.2816  17.4121  17.7233  17.8171

     occupation numbers 
     1.0000   1.0000   1.0000   1.0000   1.0000   1.0000   1.0000   1.0000
     1.0000   1.0000   1.0000   1.0000   1.0000   1.0000   1.0000   1.0000
     1.0000   1.0000   1.0000   1.0000   1.0000   1.0000   1.0000   1.0000
     1.0000   1.0000   1.0000   1.0000   1.0000   1.0000   1.0000   1.0000
     1.0000   1.0000   1.0000   1.0000   1.0000   1.0000   1.0000   1.0000
     1.0000   1.0000   1.0000   1.0000   1.0000   1.0000   1.0000   1.0000
     1.0000   1.0000   1.0000   1.0000   1.0000   1.0000   1.0000   1.0000
     1.0000   1.0000   1.0000   1.0000   1.0000   1.0000   1.0000   1.0000
     1.0000   1.0000   1.0000   1.0000   1.0000   1.0000   1.0000   1.0000
     1.0000   1.0000   1.0000   1.0000   1.0000   1.0000   1.0000   1.0000
     1.0000   1.0000   1.0000   1.0000   1.0000   1.0000   1.0000   1.0000
     1.0000   1.0000   1.0000   1.0000   1.0000   1.0000   1.0000   1.0000
     1.0000   1.0000   1.0000   1.0000   1.0000   1.0000   1.0000   1.0000
     1.0000   1.0000   1.0000   1.0000   1.0000   1.0000   1.0000   1.0000
     1.0000   1.0000   1.0000   1.0000   1.0000   1.0000   1.0000   1.0000
     1.0000   1.0000   1.0000   1.0000   1.0000   1.0000   1.0000   1.0000
     1.0000   1.0000   1.0001   1.0001   1.0405   1.0564   1.0746   1.0830
     1.0082   0.9316   0.0002   0.0001   0.0000   0.0000   0.0000   0.0000
     0.0000   0.0000   0.0000   0.0000   0.0000   0.0000   0.0000   0.0000
     0.0000   0.0000   0.0000   0.0000   0.0000   0.0000   0.0000   0.0000
     0.0000   0.0000   0.0000   0.0000   0.0000   0.0000   0.0000   0.0000
     0.0000   0.0000   0.0000   0.0000   0.0000   0.0000   0.0000   0.0000
     0.0000   0.0000   0.0000   0.0000   0.0000   0.0000   0.0000   0.0000
     0.0000   0.0000   0.0000   0.0000   0.0000   0.0000   0.0000   0.0000
     0.0000   0.0000   0.0000   0.0000   0.0000   0.0000   0.0000   0.0000
     0.0000   0.0000   0.0000   0.0000   0.0000   0.0000   0.0000   0.0000
     0.0000   0.0000   0.0000   0.0000   0.0000   0.0000   0.0000   0.0000
     0.0000   0.0000   0.0000   0.0000   0.0000   0.0000   0.0000   0.0000
     0.0000   0.0000   0.0000   0.0000   0.0000   0.0000   0.0000   0.0000
     0.0000   0.0000   0.0000   0.0000   0.0000   0.0000   0.0000   0.0000

          k = 0.0000 0.0000 0.7531 ( 23470 PWs)   bands (ev):

   -74.3200 -74.2321 -69.6633 -69.5757 -43.5522 -43.4643 -43.1889 -43.1014
   -42.6368 -42.5488 -38.8307 -38.7433 -38.4442 -38.3567 -38.0797 -37.9923
   -16.8855 -16.8853 -16.8824 -16.8823 -16.8785 -16.8784 -16.8739 -16.8737
   -16.8500 -16.8499 -16.8420 -16.8418 -16.8277 -16.8275 -16.8214 -16.8213
   -13.9129 -13.9128 -13.9039 -13.9038 -13.9010 -13.9009 -13.8932 -13.8931
   -13.8901 -13.8900 -13.8843 -13.8841 -13.8772 -13.8771 -13.8615 -13.8613
   -13.8580 -13.8579 -13.8524 -13.8523 -13.8382 -13.8381 -13.8288 -13.8286
    -5.5027  -5.4805  -5.3759  -5.3496  -5.2911  -5.2578  -5.1364  -5.0929
    -3.8220  -3.7948  -3.6569  -3.6330  -3.2884  -3.2732  -3.0909  -3.0774
    -1.4151  -1.3922  -1.1777  -1.1626  -0.6926  -0.6756  -0.5026  -0.4832
     3.3282   3.3993   3.5523   3.6085   3.6361   3.6944   4.0140   4.0271
     4.0884   4.0994   4.1135   4.1455   4.5186   4.5702   4.7798   4.8084
     5.1140   5.1207   5.3787   5.3918   5.5129   5.5283   5.7061   5.7263
     5.7966   5.8395   5.9954   6.0224   6.1161   6.1876   6.2572   6.2627
     6.3638   6.3670   6.3897   6.4056   6.4233   6.4428   6.6732   6.6880
     6.7288   6.7527   6.8441   6.8664   6.9792   6.9993   7.0486   7.1079
     7.2002   7.2447   7.2960   7.3436   7.5168   7.5350   7.6400   7.6567
     7.7115   7.7226   7.8437   7.8820   7.9333   7.9479   8.0697   8.1126
     8.1568   8.2009   8.8204   8.8580   8.9015   8.9331   9.0254   9.0479
     9.1148   9.1458   9.2029   9.2437   9.3216   9.3554   9.4310   9.4664
     9.5494   9.5620   9.5802   9.6411   9.7764   9.8208   9.9530   9.9920
    10.0343  10.0806  10.4926  10.5591  11.4182  11.4863  11.6826  11.7029
    11.8011  11.8057  12.5166  12.5773  12.7112  12.7730  12.8454  12.9141
    13.1992  13.2354  13.2481  13.2720  13.3292  13.3552  13.4010  13.4421
    13.5750  13.5789  13.6956  13.7352  13.7564  13.8189  13.8684  13.9074
    13.9195  14.0251  14.0333  14.0907  14.1187  14.2376  14.3451  14.3662
    14.3973  14.4966  14.5090  14.6420  14.6703  14.6798  14.8231  14.8762
    14.8998  14.9819  15.3084  15.3844  15.4546  15.4684  15.4764  15.4942
    15.5590  15.6125  15.6266  15.6902  15.7276  15.7497  15.7856  15.8082
    15.9787  16.0584  16.0866  16.1218  16.1521  16.2051  16.2160  16.2565

     occupation numbers 
     1.0000   1.0000   1.0000   1.0000   1.0000   1.0000   1.0000   1.0000
     1.0000   1.0000   1.0000   1.0000   1.0000   1.0000   1.0000   1.0000
     1.0000   1.0000   1.0000   1.0000   1.0000   1.0000   1.0000   1.0000
     1.0000   1.0000   1.0000   1.0000   1.0000   1.0000   1.0000   1.0000
     1.0000   1.0000   1.0000   1.0000   1.0000   1.0000   1.0000   1.0000
     1.0000   1.0000   1.0000   1.0000   1.0000   1.0000   1.0000   1.0000
     1.0000   1.0000   1.0000   1.0000   1.0000   1.0000   1.0000   1.0000
     1.0000   1.0000   1.0000   1.0000   1.0000   1.0000   1.0000   1.0000
     1.0000   1.0000   1.0000   1.0000   1.0000   1.0000   1.0000   1.0000
     1.0000   1.0000   1.0000   1.0000   1.0000   1.0000   1.0000   1.0000
     1.0000   1.0000   1.0000   1.0000   1.0000   1.0000   1.0000   1.0000
     1.0000   1.0000   1.0000   1.0000   1.0000   1.0000   1.0000   1.0000
     1.0000   1.0000   1.0000   1.0000   1.0000   1.0000   1.0000   1.0000
     1.0000   1.0000   1.0000   1.0000   1.0000   1.0000   1.0000   1.0000
     1.0000   1.0000   1.0000   1.0000   1.0000   1.0000   1.0000   1.0001
     1.0001   1.0002   1.0012   1.0017   1.0087   1.0111   1.0195   1.0344
     1.0651   1.0778   1.0832   1.0719   0.8198   0.7747   0.4894   0.4450
     0.3115   0.2872   0.0978   0.0645   0.0348   0.0289   0.0049   0.0024
     0.0011   0.0005   0.0000   0.0000   0.0000   0.0000   0.0000   0.0000
     0.0000   0.0000   0.0000   0.0000   0.0000   0.0000   0.0000   0.0000
     0.0000   0.0000   0.0000   0.0000   0.0000   0.0000   0.0000   0.0000
     0.0000   0.0000   0.0000   0.0000   0.0000   0.0000   0.0000   0.0000
     0.0000   0.0000   0.0000   0.0000   0.0000   0.0000   0.0000   0.0000
     0.0000   0.0000   0.0000   0.0000   0.0000   0.0000   0.0000   0.0000
     0.0000   0.0000   0.0000   0.0000   0.0000   0.0000   0.0000   0.0000
     0.0000   0.0000   0.0000   0.0000   0.0000   0.0000   0.0000   0.0000
     0.0000   0.0000   0.0000   0.0000   0.0000   0.0000   0.0000   0.0000
     0.0000   0.0000   0.0000   0.0000   0.0000   0.0000   0.0000   0.0000
     0.0000   0.0000   0.0000   0.0000   0.0000   0.0000   0.0000   0.0000
     0.0000   0.0000   0.0000   0.0000   0.0000   0.0000   0.0000   0.0000

     the Fermi energy is     7.6740 ev
     (compare with:     7.7080 eV, computed in scf)

     Writing all to output data dir ./tmp/MnBi2Te4.save/
 
     init_run     :     11.88s CPU     12.47s WALL (       1 calls)
     electrons    :  17400.94s CPU  17946.36s WALL (       1 calls)

     Called by init_run:
     wfcinit      :      9.39s CPU      9.65s WALL (       1 calls)
     wfcinit:atom :      0.02s CPU      0.14s WALL (      64 calls)
     wfcinit:wfcr :    735.87s CPU    758.48s WALL (      64 calls)
     potinit      :      1.16s CPU      1.31s WALL (       1 calls)
     hinit0       :      0.60s CPU      0.64s WALL (       1 calls)

     Called by electrons:
     c_bands      :  17400.91s CPU  17946.32s WALL (       1 calls)
     v_of_rho     :      0.55s CPU      0.65s WALL (       1 calls)
     v_h          :      0.01s CPU      0.02s WALL (       1 calls)
     v_xc         :      0.54s CPU      0.63s WALL (       1 calls)
     newd         :      0.66s CPU      0.70s WALL (       1 calls)
     PAW_pot      :      0.54s CPU      0.56s WALL (       1 calls)

     Called by c_bands:
     init_us_2    :      0.31s CPU      0.32s WALL (     128 calls)
     init_us_2:cp :      0.31s CPU      0.32s WALL (     128 calls)
     cegterg      :  16661.18s CPU  17182.95s WALL (     228 calls)

     Called by sum_band:

     Called by *egterg:
     cdiaghg      :    184.31s CPU    190.42s WALL (    4031 calls)
     cegterg:over :     93.07s CPU     97.76s WALL (    3967 calls)
     cegterg:upda :     67.98s CPU     69.95s WALL (    3967 calls)
     cegterg:last :    166.43s CPU    170.01s WALL (    1504 calls)
     cdiaghg:chol :     12.61s CPU     12.81s WALL (    4031 calls)
     cdiaghg:inve :      3.79s CPU      3.82s WALL (    4031 calls)
     cdiaghg:para :     37.18s CPU     40.29s WALL (    8062 calls)
     h_psi        :  16794.62s CPU  17319.99s WALL (    4259 calls)
     s_psi        :     71.60s CPU     72.19s WALL (    4323 calls)
     g_psi        :      1.61s CPU      1.64s WALL (    3967 calls)

     Called by h_psi:
     h_psi:calbec :     68.64s CPU     74.27s WALL (    4259 calls)
     vloc_psi     :  16612.19s CPU  17129.20s WALL (    4259 calls)
     add_vuspsi   :     63.74s CPU     65.25s WALL (    4259 calls)
     vhpsi        :     46.10s CPU     46.99s WALL (    4259 calls)

     General routines
     calbec       :     70.77s CPU     76.54s WALL (    4323 calls)
     fft          :      0.21s CPU      0.24s WALL (      27 calls)
     fftw         :   9498.06s CPU   9946.08s WALL ( 1432996 calls)
     davcio       :      0.05s CPU      0.98s WALL (     256 calls)
 
     Parallel routines

     Hubbard U routines
     vhpsi        :     46.10s CPU     46.99s WALL (    4259 calls)

     PAW routines
     PAW_pot      :      0.54s CPU      0.56s WALL (       1 calls)
 
     PWSCF        :      4h50m CPU      4h59m WALL

 
   This run was terminated on:  19:44:54  23Sep2025            

=------------------------------------------------------------------------------=
   JOB DONE.
=------------------------------------------------------------------------------=
