
     Program PWSCF v.7.2 starts on 23Sep2025 at 19:44:55 

     This program is part of the open-source Quantum ESPRESSO suite
     for quantum simulation of materials; please cite
         "P. Giannozzi et al., J. Phys.:Condens. Matter 21 395502 (2009);
         "P. Giannozzi et al., J. Phys.:Condens. Matter 29 465901 (2017);
         "P. Giannozzi et al., J. Chem. Phys. 152 154105 (2020);
          URL http://www.quantum-espresso.org", 
     in publications or presentations arising from this work. More details at
     http://www.quantum-espresso.org/quote

     Parallel version (MPI), running on    32 processors

     MPI processes distributed on     1 nodes
     90949 MiB available memory on the printing compute node when the environment starts
 
     Reading input from MnBi2Te4.bands.in

     Current dimensions of program PWSCF are:
     Max number of different atomic species (ntypx) = 10
     Max number of k-points (npk) =  40000
     Max angular momentum in pseudopotentials (lmaxx) =  4

     Atomic positions and unit cell read from directory:
     ./tmp/MnBi2Te4.save/
     Atomic positions from file used, from input discarded
 
     file Mn.rel-pbe-spn-kjpaw_psl.0.3.1.UPF: wavefunction(s)  3P 3P 3D renormalized
     file Mn.rel-pbe-spn-kjpaw_psl.0.3.1.UPF: wavefunction(s)  3P 3P 3D renormalized
     file Bi.rel-pbe-dn-kjpaw_psl.1.0.0.UPF: wavefunction(s)  6P 6P 5D 5D renormalized
     file Te.rel-pbe-n-kjpaw_psl.1.0.0.UPF: wavefunction(s)  5S 5P 5P renormalized

     Fixed quantization axis for GGA:     0.000000    0.000000    1.000000
 
     R & G space division:  proc/nbgrp/npool/nimage =      32
     Subspace diagonalization in iterative solution of the eigenvalue problem:
     one sub-group per band group will be used
     scalapack distributed-memory algorithm (size of sub-group:  2*  2 procs)

 
     Parallelization info
     --------------------
     sticks:   dense  smooth     PW     G-vecs:    dense   smooth      PW
     Min         252     252     70                 5873     5873     871
     Max         253     253     71                 5875     5875     873
     Sum        8079    8079   2257               187971   187971   27897
 
     Using Slab Decomposition
 


     bravais-lattice index     =            5
     lattice parameter (alat)  =      51.7756  a.u.
     unit-cell volume          =    2994.5794 (a.u.)^3
     number of atoms/cell      =           14
     number of atomic types    =            4
     number of electrons       =       138.00
     number of Kohn-Sham states=          240
     kinetic-energy cutoff     =      60.0000  Ry
     charge density cutoff     =     240.0000  Ry
     Exchange-correlation= SLA  PW   PBX  PBC
                           (   1   4   3   4   0   0   0)
     Noncollinear calculation with spin-orbit

     Hubbard projectors: ortho-atomic
     Hubbard parameters of DFT+U (Liechtenstein formulation) in eV:
     U(Mn1-3d) =  1.0000
     U(Mn2-3d) =  1.0000
     DFT+U on averaged j=l+1/2,l-1/2 radial WFs

     Internal variables: lda_plus_u = T, lda_plus_u_kind = 1

     celldm(1)=  51.775623  celldm(2)=   0.000000  celldm(3)=   0.000000
     celldm(4)=   0.987491  celldm(5)=   0.000000  celldm(6)=   0.000000

     crystal axes: (cart. coord. in units of alat)
               a(1) = (   0.079085  -0.045660   0.995822 )  
               a(2) = (   0.000000   0.091319   0.995822 )  
               a(3) = (  -0.079085  -0.045660   0.995822 )  

     reciprocal axes: (cart. coord. in units 2 pi/alat)
               b(1) = (  6.322314 -3.650196  0.334731 )  
               b(2) = (  0.000000  7.300392  0.334734 )  
               b(3) = ( -6.322314 -3.650196  0.334731 )  


     PseudoPot. # 1 for Mn read from file:
     ./Mn.rel-pbe-spn-kjpaw_psl.0.3.1.UPF
     MD5 check sum: dfba1c7561257014502ac20495784078
     Pseudo is Projector augmented-wave + core cor, Zval = 15.0
     Generated using &quot;atomic&quot; code by A. Dal Corso  v.6.2.2
     Shape of augmentation charge: PSQ
     Using radial grid of 1187 points, 10 beta functions with: 
                l(1) =   0
                l(2) =   0
                l(3) =   1
                l(4) =   1
                l(5) =   1
                l(6) =   1
                l(7) =   2
                l(8) =   2
                l(9) =   2
               l(10) =   2
     Q(r) pseudized with 0 coefficients 


     PseudoPot. # 2 for Mn read from file:
     ./Mn.rel-pbe-spn-kjpaw_psl.0.3.1.UPF
     MD5 check sum: dfba1c7561257014502ac20495784078
     Pseudo is Projector augmented-wave + core cor, Zval = 15.0
     Generated using &quot;atomic&quot; code by A. Dal Corso  v.6.2.2
     Shape of augmentation charge: PSQ
     Using radial grid of 1187 points, 10 beta functions with: 
                l(1) =   0
                l(2) =   0
                l(3) =   1
                l(4) =   1
                l(5) =   1
                l(6) =   1
                l(7) =   2
                l(8) =   2
                l(9) =   2
               l(10) =   2
     Q(r) pseudized with 0 coefficients 


     PseudoPot. # 3 for Bi read from file:
     ./Bi.rel-pbe-dn-kjpaw_psl.1.0.0.UPF
     MD5 check sum: 8010b987e9fb97324c8de82fb26a3f7d
     Pseudo is Projector augmented-wave + core cor, Zval = 15.0
     Generated using &quot;atomic&quot; code by A. Dal Corso  v.6.2.2
     Shape of augmentation charge: PSQ
     Using radial grid of 1283 points, 10 beta functions with: 
                l(1) =   0
                l(2) =   0
                l(3) =   1
                l(4) =   1
                l(5) =   1
                l(6) =   1
                l(7) =   2
                l(8) =   2
                l(9) =   2
               l(10) =   2
     Q(r) pseudized with 0 coefficients 


     PseudoPot. # 4 for Te read from file:
     ./Te.rel-pbe-n-kjpaw_psl.1.0.0.UPF
     MD5 check sum: 8399411061dffbb19b40ade5049f5146
     Pseudo is Projector augmented-wave + core cor, Zval =  6.0
     Generated using &quot;atomic&quot; code by A. Dal Corso  v.6.3
     Shape of augmentation charge: PSQ
     Using radial grid of 1245 points, 10 beta functions with: 
                l(1) =   0
                l(2) =   0
                l(3) =   1
                l(4) =   1
                l(5) =   1
                l(6) =   1
                l(7) =   2
                l(8) =   2
                l(9) =   2
               l(10) =   2
     Q(r) pseudized with 0 coefficients 


     atomic species   valence    mass     pseudopotential
        Mn1           15.00    54.93800     Mn( 1.00)
        Mn2           15.00    54.93800     Mn( 1.00)
        Bi            15.00   208.98000     Bi( 1.00)
        Te             6.00   127.60300     Te( 1.00)

      4 Sym. Ops., with inversion, found


                                    s                        frac. trans.

      isym =  1     identity                                     

 Time Reversal            0
 cryst.   s( 1) = (     1          0          0      )
                  (     0          1          0      )
                  (     0          0          1      )

 cart.    s( 1) = (  1.0000000  0.0000000  0.0000000 )
                  (  0.0000000  1.0000000  0.0000000 )
                  (  0.0000000  0.0000000  1.0000000 )


      isym =  2     180 deg rotation - cart. axis [1,0,0]        

 Time Reversal            1
 cryst.   s( 2) = (     0          0         -1      )
                  (     0         -1          0      )
                  (    -1          0          0      )

 cart.    s( 2) = (  1.0000000  0.0000000  0.0000000 )
                  (  0.0000000 -1.0000000 -0.0000000 )
                  (  0.0000000  0.0000000 -1.0000000 )


      isym =  3     inversion                                    

 Time Reversal            0
 cryst.   s( 3) = (    -1          0          0      )
                  (     0         -1          0      )
                  (     0          0         -1      )

 cart.    s( 3) = ( -1.0000000  0.0000000  0.0000000 )
                  (  0.0000000 -1.0000000 -0.0000000 )
                  (  0.0000000  0.0000000 -1.0000000 )


      isym =  4     inv. 180 deg rotation - cart. axis [1,0,0]   

 Time Reversal            1
 cryst.   s( 4) = (     0          0          1      )
                  (     0          1          0      )
                  (     1          0          0      )

 cart.    s( 4) = ( -1.0000000  0.0000000  0.0000000 )
                  (  0.0000000  1.0000000  0.0000000 )
                  (  0.0000000  0.0000000  1.0000000 )


     the magnetic double point group is C_2h (2/m)  [C_i (-1)   ]
     using the double point group C_i (-1)   
     there are  4 classes and  2 irreducible representations
     the character table:

       E     -E    i     -i   
                              
G_2+   1.00 -1.00  1.00 -1.00
G_2-   1.00 -1.00 -1.00  1.00

     the symmetry operations in each class and the name of the first element:

     E             1
          identity                                               
     -E           -1
          identity E                                             
     i             2
          inversion                                              
     -i           -2
          inversion E                                            

   Cartesian axes

     site n.     atom                  positions (alat units)
         1           Mn1 tau(   1) = (   0.0000000   0.0000000   0.0000000  )
         2           Mn2 tau(   2) = (   0.0000000  -0.0000005   1.4937325  )
         3           Bi  tau(   3) = (   0.0000000  -0.0000002   0.6346869  )
         4           Bi  tau(   4) = (   0.0000000  -0.0000007   2.1284194  )
         5           Bi  tau(   5) = (   0.0000000  -0.0000003   0.8590455  )
         6           Bi  tau(   6) = (   0.0000000  -0.0000008   2.3527780  )
         7           Te  tau(   7) = (   0.0000000  -0.0000001   0.1992042  )
         8           Te  tau(   8) = (   0.0000000  -0.0000006   1.6929366  )
         9           Te  tau(   9) = (   0.0000000  -0.0000004   1.2945283  )
        10           Te  tau(  10) = (   0.0000000  -0.0000009   2.7882608  )
        11           Te  tau(  11) = (   0.0000000  -0.0000001   0.4392470  )
        12           Te  tau(  12) = (   0.0000000  -0.0000006   1.9329794  )
        13           Te  tau(  13) = (   0.0000000  -0.0000004   1.0544855  )
        14           Te  tau(  14) = (   0.0000000  -0.0000009   2.5482179  )

     --------------------------------------------
     DFT-D3 Dispersion Correction (3-body terms):
     --------------------------------------------
       Reference C6 values for interpolation: 

         atom   Coordination number   C6
         Mn1        0.000          1605.50
         Mn1        1.641           479.11
         Mn1        9.885           227.69
         Mn2        0.000          1605.50
         Mn2        1.641           479.11
         Mn2        9.885           227.69
         Te         0.000           851.07
         Te         0.981           850.20
         Te         1.964           837.16
         Bi         0.000          1235.06
         Bi         0.982          1188.09
         Bi         1.966          1132.10
         Bi         2.950          1067.76

       Values used:

         atom   Coordination number  R0_AB[au]  C6      C8
         Mn1        3.848            3.351    479.11  48433.79
         Mn2        3.848            3.351    479.11  48433.79
         Bi         5.275            3.890   1067.76 147315.96
         Bi         5.275            3.890   1067.76 147315.96
         Bi         5.275            3.890   1067.76 147315.96
         Bi         5.275            3.890   1067.76 147315.96
         Te         3.328            3.676    837.16  84978.06
         Te         3.328            3.676    837.16  84978.06
         Te         3.328            3.676    837.16  84978.06
         Te         3.328            3.676    837.16  84978.06
         Te         4.238            3.676    837.16  84978.05
         Te         4.238            3.676    837.16  84978.05
         Te         4.238            3.676    837.16  84978.05
         Te         4.238            3.676    837.16  84978.05

         Molecular C6 ( Ry / a.u.^6 ) =    164642.77


   Crystallographic axes

     site n.     atom                  positions (cryst. coord.)
         1           Mn1 tau(   1) = (  0.0000000  0.0000000  0.0000000  )
         2           Mn2 tau(   2) = (  0.5000000  0.5000000  0.5000000  )
         3           Bi  tau(   3) = (  0.2124500  0.2124500  0.2124500  )
         4           Bi  tau(   4) = (  0.7124500  0.7124500  0.7124500  )
         5           Bi  tau(   5) = (  0.2875500  0.2875500  0.2875500  )
         6           Bi  tau(   6) = (  0.7875500  0.7875500  0.7875500  )
         7           Te  tau(   7) = (  0.0666800  0.0666800  0.0666800  )
         8           Te  tau(   8) = (  0.5666800  0.5666800  0.5666800  )
         9           Te  tau(   9) = (  0.4333200  0.4333200  0.4333200  )
        10           Te  tau(  10) = (  0.9333200  0.9333200  0.9333200  )
        11           Te  tau(  11) = (  0.1470300  0.1470300  0.1470300  )
        12           Te  tau(  12) = (  0.6470300  0.6470300  0.6470300  )
        13           Te  tau(  13) = (  0.3529700  0.3529700  0.3529700  )
        14           Te  tau(  14) = (  0.8529700  0.8529700  0.8529700  )

     number of k points=   251  Marzari-Vanderbilt smearing, width (Ry)=  0.0200
                       cart. coord. in units 2pi/alat
        k(    1) = (   0.0000000   0.0000000   0.0000000), wk =   0.0039841
        k(    2) = (   0.0000000   0.0000000   0.0100420), wk =   0.0039841
        k(    3) = (   0.0000000   0.0000000   0.0200839), wk =   0.0039841
        k(    4) = (   0.0000000   0.0000000   0.0301259), wk =   0.0039841
        k(    5) = (   0.0000000   0.0000000   0.0401678), wk =   0.0039841
        k(    6) = (   0.0000000   0.0000000   0.0502098), wk =   0.0039841
        k(    7) = (   0.0000000   0.0000000   0.0602518), wk =   0.0039841
        k(    8) = (   0.0000000   0.0000000   0.0702937), wk =   0.0039841
        k(    9) = (   0.0000000   0.0000000   0.0803357), wk =   0.0039841
        k(   10) = (   0.0000000   0.0000000   0.0903776), wk =   0.0039841
        k(   11) = (   0.0000000   0.0000000   0.1004196), wk =   0.0039841
        k(   12) = (   0.0000000   0.0000000   0.1104615), wk =   0.0039841
        k(   13) = (   0.0000000   0.0000000   0.1205035), wk =   0.0039841
        k(   14) = (   0.0000000   0.0000000   0.1305455), wk =   0.0039841
        k(   15) = (   0.0000000   0.0000000   0.1405874), wk =   0.0039841
        k(   16) = (   0.0000000   0.0000000   0.1506294), wk =   0.0039841
        k(   17) = (   0.0000000   0.0000000   0.1606713), wk =   0.0039841
        k(   18) = (   0.0000000   0.0000000   0.1707133), wk =   0.0039841
        k(   19) = (   0.0000000   0.0000000   0.1807553), wk =   0.0039841
        k(   20) = (   0.0000000   0.0000000   0.1907972), wk =   0.0039841
        k(   21) = (   0.0000000   0.0000000   0.2008392), wk =   0.0039841
        k(   22) = (   0.0000000   0.0000000   0.2108811), wk =   0.0039841
        k(   23) = (   0.0000000   0.0000000   0.2209231), wk =   0.0039841
        k(   24) = (   0.0000000   0.0000000   0.2309651), wk =   0.0039841
        k(   25) = (   0.0000000   0.0000000   0.2410070), wk =   0.0039841
        k(   26) = (   0.0000000   0.0000000   0.2510490), wk =   0.0039841
        k(   27) = (   0.0000000   0.0000000   0.2610909), wk =   0.0039841
        k(   28) = (   0.0000000   0.0000000   0.2711329), wk =   0.0039841
        k(   29) = (   0.0000000   0.0000000   0.2811749), wk =   0.0039841
        k(   30) = (   0.0000000   0.0000000   0.2912168), wk =   0.0039841
        k(   31) = (   0.0000000   0.0000000   0.3012588), wk =   0.0039841
        k(   32) = (   0.0000000   0.0000000   0.3113007), wk =   0.0039841
        k(   33) = (   0.0000000   0.0000000   0.3213427), wk =   0.0039841
        k(   34) = (   0.0000000   0.0000000   0.3313846), wk =   0.0039841
        k(   35) = (   0.0000000   0.0000000   0.3414266), wk =   0.0039841
        k(   36) = (   0.0000000   0.0000000   0.3514686), wk =   0.0039841
        k(   37) = (   0.0000000   0.0000000   0.3615105), wk =   0.0039841
        k(   38) = (   0.0000000   0.0000000   0.3715525), wk =   0.0039841
        k(   39) = (   0.0000000   0.0000000   0.3815944), wk =   0.0039841
        k(   40) = (   0.0000000   0.0000000   0.3916364), wk =   0.0039841
        k(   41) = (   0.0000000   0.0000000   0.4016784), wk =   0.0039841
        k(   42) = (   0.0000000   0.0000000   0.4117203), wk =   0.0039841
        k(   43) = (   0.0000000   0.0000000   0.4217623), wk =   0.0039841
        k(   44) = (   0.0000000   0.0000000   0.4318042), wk =   0.0039841
        k(   45) = (   0.0000000   0.0000000   0.4418462), wk =   0.0039841
        k(   46) = (   0.0000000   0.0000000   0.4518882), wk =   0.0039841
        k(   47) = (   0.0000000   0.0000000   0.4619301), wk =   0.0039841
        k(   48) = (   0.0000000   0.0000000   0.4719721), wk =   0.0039841
        k(   49) = (   0.0000000   0.0000000   0.4820140), wk =   0.0039841
        k(   50) = (   0.0000000   0.0000000   0.4920560), wk =   0.0039841
        k(   51) = (   0.0000000   0.0000000   0.5020979), wk =   0.0039841
        k(   52) = (   0.0000000  -0.0717761   0.5020979), wk =   0.0039841
        k(   53) = (   0.0000000  -0.1435522   0.5020979), wk =   0.0039841
        k(   54) = (   0.0000000  -0.2153283   0.5020979), wk =   0.0039841
        k(   55) = (   0.0000000  -0.2871044   0.5020979), wk =   0.0039841
        k(   56) = (   0.0000000  -0.3588805   0.5020978), wk =   0.0039841
        k(   57) = (   0.0000000  -0.4306566   0.5020978), wk =   0.0039841
        k(   58) = (   0.0000000  -0.5024326   0.5020978), wk =   0.0039841
        k(   59) = (   0.0000000  -0.5742087   0.5020978), wk =   0.0039841
        k(   60) = (   0.0000000  -0.6459848   0.5020977), wk =   0.0039841
        k(   61) = (   0.0000000  -0.7177609   0.5020977), wk =   0.0039841
        k(   62) = (   0.0000000  -0.7895370   0.5020977), wk =   0.0039841
        k(   63) = (   0.0000000  -0.8613131   0.5020977), wk =   0.0039841
        k(   64) = (   0.0000000  -0.9330892   0.5020976), wk =   0.0039841
        k(   65) = (   0.0000000  -1.0048653   0.5020976), wk =   0.0039841
        k(   66) = (   0.0000000  -1.0766414   0.5020976), wk =   0.0039841
        k(   67) = (   0.0000000  -1.1484175   0.5020976), wk =   0.0039841
        k(   68) = (   0.0000000  -1.2201936   0.5020975), wk =   0.0039841
        k(   69) = (   0.0000000  -1.2919697   0.5020975), wk =   0.0039841
        k(   70) = (   0.0000000  -1.3637458   0.5020975), wk =   0.0039841
        k(   71) = (   0.0000000  -1.4355219   0.5020975), wk =   0.0039841
        k(   72) = (   0.0000000  -1.5072979   0.5020974), wk =   0.0039841
        k(   73) = (   0.0000000  -1.5790740   0.5020974), wk =   0.0039841
        k(   74) = (   0.0000000  -1.6508501   0.5020974), wk =   0.0039841
        k(   75) = (   0.0000000  -1.7226262   0.5020974), wk =   0.0039841
        k(   76) = (   0.0000000  -1.7944023   0.5020973), wk =   0.0039841
        k(   77) = (   0.0000000  -1.8661784   0.5020973), wk =   0.0039841
        k(   78) = (   0.0000000  -1.9379545   0.5020973), wk =   0.0039841
        k(   79) = (   0.0000000  -2.0097306   0.5020973), wk =   0.0039841
        k(   80) = (   0.0000000  -2.0815067   0.5020973), wk =   0.0039841
        k(   81) = (   0.0000000  -2.1532828   0.5020972), wk =   0.0039841
        k(   82) = (   0.0000000  -2.2250589   0.5020972), wk =   0.0039841
        k(   83) = (   0.0000000  -2.2968350   0.5020972), wk =   0.0039841
        k(   84) = (   0.0000000  -2.3686111   0.5020972), wk =   0.0039841
        k(   85) = (   0.0000000  -2.4403872   0.5020971), wk =   0.0039841
        k(   86) = (   0.0000000  -2.5121632   0.5020971), wk =   0.0039841
        k(   87) = (   0.0000000  -2.5839393   0.5020971), wk =   0.0039841
        k(   88) = (   0.0000000  -2.6557154   0.5020971), wk =   0.0039841
        k(   89) = (   0.0000000  -2.7274915   0.5020970), wk =   0.0039841
        k(   90) = (   0.0000000  -2.7992676   0.5020970), wk =   0.0039841
        k(   91) = (   0.0000000  -2.8710437   0.5020970), wk =   0.0039841
        k(   92) = (   0.0000000  -2.9428198   0.5020970), wk =   0.0039841
        k(   93) = (   0.0000000  -3.0145959   0.5020969), wk =   0.0039841
        k(   94) = (   0.0000000  -3.0863720   0.5020969), wk =   0.0039841
        k(   95) = (   0.0000000  -3.1581481   0.5020969), wk =   0.0039841
        k(   96) = (   0.0000000  -3.2299242   0.5020969), wk =   0.0039841
        k(   97) = (   0.0000000  -3.3017003   0.5020968), wk =   0.0039841
        k(   98) = (   0.0000000  -3.3734764   0.5020968), wk =   0.0039841
        k(   99) = (   0.0000000  -3.4452524   0.5020968), wk =   0.0039841
        k(  100) = (   0.0000000  -3.5170285   0.5020968), wk =   0.0039841
        k(  101) = (   0.0000000  -3.5888046   0.5020967), wk =   0.0039841
        k(  102) = (   0.0000000  -3.5900325   0.4987494), wk =   0.0039841
        k(  103) = (   0.0000000  -3.5912603   0.4954021), wk =   0.0039841
        k(  104) = (   0.0000000  -3.5924881   0.4920548), wk =   0.0039841
        k(  105) = (   0.0000000  -3.5937159   0.4887075), wk =   0.0039841
        k(  106) = (   0.0000000  -3.5949438   0.4853601), wk =   0.0039841
        k(  107) = (   0.0000000  -3.5961716   0.4820128), wk =   0.0039841
        k(  108) = (   0.0000000  -3.5973994   0.4786655), wk =   0.0039841
        k(  109) = (   0.0000000  -3.5986272   0.4753182), wk =   0.0039841
        k(  110) = (   0.0000000  -3.5998551   0.4719709), wk =   0.0039841
        k(  111) = (   0.0000000  -3.6010829   0.4686235), wk =   0.0039841
        k(  112) = (   0.0000000  -3.6023107   0.4652762), wk =   0.0039841
        k(  113) = (   0.0000000  -3.6035385   0.4619289), wk =   0.0039841
        k(  114) = (   0.0000000  -3.6047664   0.4585816), wk =   0.0039841
        k(  115) = (   0.0000000  -3.6059942   0.4552343), wk =   0.0039841
        k(  116) = (   0.0000000  -3.6072220   0.4518869), wk =   0.0039841
        k(  117) = (   0.0000000  -3.6084498   0.4485396), wk =   0.0039841
        k(  118) = (   0.0000000  -3.6096777   0.4451923), wk =   0.0039841
        k(  119) = (   0.0000000  -3.6109055   0.4418450), wk =   0.0039841
        k(  120) = (   0.0000000  -3.6121333   0.4384977), wk =   0.0039841
        k(  121) = (   0.0000000  -3.6133611   0.4351503), wk =   0.0039841
        k(  122) = (   0.0000000  -3.6145890   0.4318030), wk =   0.0039841
        k(  123) = (   0.0000000  -3.6158168   0.4284557), wk =   0.0039841
        k(  124) = (   0.0000000  -3.6170446   0.4251084), wk =   0.0039841
        k(  125) = (   0.0000000  -3.6182724   0.4217611), wk =   0.0039841
        k(  126) = (   0.0000000  -3.6195003   0.4184137), wk =   0.0039841
        k(  127) = (   0.0000000  -3.6207281   0.4150664), wk =   0.0039841
        k(  128) = (   0.0000000  -3.6219559   0.4117191), wk =   0.0039841
        k(  129) = (   0.0000000  -3.6231837   0.4083718), wk =   0.0039841
        k(  130) = (   0.0000000  -3.6244116   0.4050245), wk =   0.0039841
        k(  131) = (   0.0000000  -3.6256394   0.4016771), wk =   0.0039841
        k(  132) = (   0.0000000  -3.6268672   0.3983298), wk =   0.0039841
        k(  133) = (   0.0000000  -3.6280950   0.3949825), wk =   0.0039841
        k(  134) = (   0.0000000  -3.6293229   0.3916352), wk =   0.0039841
        k(  135) = (   0.0000000  -3.6305507   0.3882879), wk =   0.0039841
        k(  136) = (   0.0000000  -3.6317785   0.3849405), wk =   0.0039841
        k(  137) = (   0.0000000  -3.6330063   0.3815932), wk =   0.0039841
        k(  138) = (   0.0000000  -3.6342342   0.3782459), wk =   0.0039841
        k(  139) = (   0.0000000  -3.6354620   0.3748986), wk =   0.0039841
        k(  140) = (   0.0000000  -3.6366898   0.3715513), wk =   0.0039841
        k(  141) = (   0.0000000  -3.6379176   0.3682039), wk =   0.0039841
        k(  142) = (   0.0000000  -3.6391455   0.3648566), wk =   0.0039841
        k(  143) = (   0.0000000  -3.6403733   0.3615093), wk =   0.0039841
        k(  144) = (   0.0000000  -3.6416011   0.3581620), wk =   0.0039841
        k(  145) = (   0.0000000  -3.6428289   0.3548147), wk =   0.0039841
        k(  146) = (   0.0000000  -3.6440568   0.3514673), wk =   0.0039841
        k(  147) = (   0.0000000  -3.6452846   0.3481200), wk =   0.0039841
        k(  148) = (   0.0000000  -3.6465124   0.3447727), wk =   0.0039841
        k(  149) = (   0.0000000  -3.6477402   0.3414254), wk =   0.0039841
        k(  150) = (   0.0000000  -3.6489681   0.3380781), wk =   0.0039841
        k(  151) = (   0.0000000  -3.6501959   0.3347307), wk =   0.0039841
        k(  152) = (   0.0000000  -3.5771920   0.3280361), wk =   0.0039841
        k(  153) = (   0.0000000  -3.5041880   0.3213415), wk =   0.0039841
        k(  154) = (   0.0000000  -3.4311841   0.3146469), wk =   0.0039841
        k(  155) = (   0.0000000  -3.3581802   0.3079523), wk =   0.0039841
        k(  156) = (   0.0000000  -3.2851763   0.3012577), wk =   0.0039841
        k(  157) = (   0.0000000  -3.2121724   0.2945631), wk =   0.0039841
        k(  158) = (   0.0000000  -3.1391685   0.2878684), wk =   0.0039841
        k(  159) = (   0.0000000  -3.0661645   0.2811738), wk =   0.0039841
        k(  160) = (   0.0000000  -2.9931606   0.2744792), wk =   0.0039841
        k(  161) = (   0.0000000  -2.9201567   0.2677846), wk =   0.0039841
        k(  162) = (   0.0000000  -2.8471528   0.2610900), wk =   0.0039841
        k(  163) = (   0.0000000  -2.7741489   0.2543954), wk =   0.0039841
        k(  164) = (   0.0000000  -2.7011450   0.2477007), wk =   0.0039841
        k(  165) = (   0.0000000  -2.6281410   0.2410061), wk =   0.0039841
        k(  166) = (   0.0000000  -2.5551371   0.2343115), wk =   0.0039841
        k(  167) = (   0.0000000  -2.4821332   0.2276169), wk =   0.0039841
        k(  168) = (   0.0000000  -2.4091293   0.2209223), wk =   0.0039841
        k(  169) = (   0.0000000  -2.3361254   0.2142277), wk =   0.0039841
        k(  170) = (   0.0000000  -2.2631214   0.2075331), wk =   0.0039841
        k(  171) = (   0.0000000  -2.1901175   0.2008384), wk =   0.0039841
        k(  172) = (   0.0000000  -2.1171136   0.1941438), wk =   0.0039841
        k(  173) = (   0.0000000  -2.0441097   0.1874492), wk =   0.0039841
        k(  174) = (   0.0000000  -1.9711058   0.1807546), wk =   0.0039841
        k(  175) = (   0.0000000  -1.8981019   0.1740600), wk =   0.0039841
        k(  176) = (   0.0000000  -1.8250979   0.1673654), wk =   0.0039841
        k(  177) = (   0.0000000  -1.7520940   0.1606708), wk =   0.0039841
        k(  178) = (   0.0000000  -1.6790901   0.1539761), wk =   0.0039841
        k(  179) = (   0.0000000  -1.6060862   0.1472815), wk =   0.0039841
        k(  180) = (   0.0000000  -1.5330823   0.1405869), wk =   0.0039841
        k(  181) = (   0.0000000  -1.4600784   0.1338923), wk =   0.0039841
        k(  182) = (   0.0000000  -1.3870744   0.1271977), wk =   0.0039841
        k(  183) = (   0.0000000  -1.3140705   0.1205031), wk =   0.0039841
        k(  184) = (   0.0000000  -1.2410666   0.1138085), wk =   0.0039841
        k(  185) = (   0.0000000  -1.1680627   0.1071138), wk =   0.0039841
        k(  186) = (   0.0000000  -1.0950588   0.1004192), wk =   0.0039841
        k(  187) = (   0.0000000  -1.0220548   0.0937246), wk =   0.0039841
        k(  188) = (   0.0000000  -0.9490509   0.0870300), wk =   0.0039841
        k(  189) = (   0.0000000  -0.8760470   0.0803354), wk =   0.0039841
        k(  190) = (   0.0000000  -0.8030431   0.0736408), wk =   0.0039841
        k(  191) = (   0.0000000  -0.7300392   0.0669461), wk =   0.0039841
        k(  192) = (   0.0000000  -0.6570353   0.0602515), wk =   0.0039841
        k(  193) = (   0.0000000  -0.5840313   0.0535569), wk =   0.0039841
        k(  194) = (   0.0000000  -0.5110274   0.0468623), wk =   0.0039841
        k(  195) = (   0.0000000  -0.4380235   0.0401677), wk =   0.0039841
        k(  196) = (   0.0000000  -0.3650196   0.0334731), wk =   0.0039841
        k(  197) = (   0.0000000  -0.2920157   0.0267785), wk =   0.0039841
        k(  198) = (   0.0000000  -0.2190118   0.0200838), wk =   0.0039841
        k(  199) = (   0.0000000  -0.1460078   0.0133892), wk =   0.0039841
        k(  200) = (   0.0000000  -0.0730039   0.0066946), wk =   0.0039841
        k(  201) = (   0.0000000   0.0000000   0.0000000), wk =   0.0039841
        k(  202) = (   0.0632231  -0.0365020   0.0033473), wk =   0.0039841
        k(  203) = (   0.1264463  -0.0730039   0.0066946), wk =   0.0039841
        k(  204) = (   0.1896694  -0.1095059   0.0100419), wk =   0.0039841
        k(  205) = (   0.2528925  -0.1460078   0.0133892), wk =   0.0039841
        k(  206) = (   0.3161157  -0.1825098   0.0167365), wk =   0.0039841
        k(  207) = (   0.3793388  -0.2190118   0.0200838), wk =   0.0039841
        k(  208) = (   0.4425620  -0.2555137   0.0234312), wk =   0.0039841
        k(  209) = (   0.5057851  -0.2920157   0.0267785), wk =   0.0039841
        k(  210) = (   0.5690082  -0.3285176   0.0301258), wk =   0.0039841
        k(  211) = (   0.6322314  -0.3650196   0.0334731), wk =   0.0039841
        k(  212) = (   0.6954545  -0.4015215   0.0368204), wk =   0.0039841
        k(  213) = (   0.7586776  -0.4380235   0.0401677), wk =   0.0039841
        k(  214) = (   0.8219008  -0.4745255   0.0435150), wk =   0.0039841
        k(  215) = (   0.8851239  -0.5110274   0.0468623), wk =   0.0039841
        k(  216) = (   0.9483471  -0.5475294   0.0502096), wk =   0.0039841
        k(  217) = (   1.0115702  -0.5840313   0.0535569), wk =   0.0039841
        k(  218) = (   1.0747933  -0.6205333   0.0569042), wk =   0.0039841
        k(  219) = (   1.1380165  -0.6570353   0.0602515), wk =   0.0039841
        k(  220) = (   1.2012396  -0.6935372   0.0635988), wk =   0.0039841
        k(  221) = (   1.2644627  -0.7300392   0.0669461), wk =   0.0039841
        k(  222) = (   1.3276859  -0.7665411   0.0702935), wk =   0.0039841
        k(  223) = (   1.3909090  -0.8030431   0.0736408), wk =   0.0039841
        k(  224) = (   1.4541322  -0.8395451   0.0769881), wk =   0.0039841
        k(  225) = (   1.5173553  -0.8760470   0.0803354), wk =   0.0039841
        k(  226) = (   1.5805784  -0.9125490   0.0836827), wk =   0.0039841
        k(  227) = (   1.6438016  -0.9490509   0.0870300), wk =   0.0039841
        k(  228) = (   1.7070247  -0.9855529   0.0903773), wk =   0.0039841
        k(  229) = (   1.7702478  -1.0220548   0.0937246), wk =   0.0039841
        k(  230) = (   1.8334710  -1.0585568   0.0970719), wk =   0.0039841
        k(  231) = (   1.8966941  -1.0950588   0.1004192), wk =   0.0039841
        k(  232) = (   1.9599173  -1.1315607   0.1037665), wk =   0.0039841
        k(  233) = (   2.0231404  -1.1680627   0.1071138), wk =   0.0039841
        k(  234) = (   2.0863635  -1.2045646   0.1104611), wk =   0.0039841
        k(  235) = (   2.1495867  -1.2410666   0.1138085), wk =   0.0039841
        k(  236) = (   2.2128098  -1.2775686   0.1171558), wk =   0.0039841
        k(  237) = (   2.2760329  -1.3140705   0.1205031), wk =   0.0039841
        k(  238) = (   2.3392561  -1.3505725   0.1238504), wk =   0.0039841
        k(  239) = (   2.4024792  -1.3870744   0.1271977), wk =   0.0039841
        k(  240) = (   2.4657024  -1.4235764   0.1305450), wk =   0.0039841
        k(  241) = (   2.5289255  -1.4600784   0.1338923), wk =   0.0039841
        k(  242) = (   2.5921486  -1.4965803   0.1372396), wk =   0.0039841
        k(  243) = (   2.6553718  -1.5330823   0.1405869), wk =   0.0039841
        k(  244) = (   2.7185949  -1.5695842   0.1439342), wk =   0.0039841
        k(  245) = (   2.7818180  -1.6060862   0.1472815), wk =   0.0039841
        k(  246) = (   2.8450412  -1.6425881   0.1506288), wk =   0.0039841
        k(  247) = (   2.9082643  -1.6790901   0.1539761), wk =   0.0039841
        k(  248) = (   2.9714875  -1.7155921   0.1573234), wk =   0.0039841
        k(  249) = (   3.0347106  -1.7520940   0.1606708), wk =   0.0039841
        k(  250) = (   3.0979337  -1.7885960   0.1640181), wk =   0.0039841
        k(  251) = (   3.1611569  -1.8250979   0.1673654), wk =   0.0039841

                       cryst. coord.
        k(    1) = (   0.0000000   0.0000000   0.0000000), wk =   0.0039841
        k(    2) = (   0.0100000   0.0100000   0.0100000), wk =   0.0039841
        k(    3) = (   0.0200000   0.0200000   0.0200000), wk =   0.0039841
        k(    4) = (   0.0300000   0.0300000   0.0300000), wk =   0.0039841
        k(    5) = (   0.0400000   0.0400000   0.0400000), wk =   0.0039841
        k(    6) = (   0.0500000   0.0500000   0.0500000), wk =   0.0039841
        k(    7) = (   0.0600000   0.0600000   0.0600000), wk =   0.0039841
        k(    8) = (   0.0700000   0.0700000   0.0700000), wk =   0.0039841
        k(    9) = (   0.0800000   0.0800000   0.0800000), wk =   0.0039841
        k(   10) = (   0.0900000   0.0900000   0.0900000), wk =   0.0039841
        k(   11) = (   0.1000000   0.1000000   0.1000000), wk =   0.0039841
        k(   12) = (   0.1100000   0.1100000   0.1100000), wk =   0.0039841
        k(   13) = (   0.1200000   0.1200000   0.1200000), wk =   0.0039841
        k(   14) = (   0.1300000   0.1300000   0.1300000), wk =   0.0039841
        k(   15) = (   0.1400000   0.1400000   0.1400000), wk =   0.0039841
        k(   16) = (   0.1500000   0.1500000   0.1500000), wk =   0.0039841
        k(   17) = (   0.1600000   0.1600000   0.1600000), wk =   0.0039841
        k(   18) = (   0.1700000   0.1700000   0.1700000), wk =   0.0039841
        k(   19) = (   0.1800000   0.1800000   0.1800000), wk =   0.0039841
        k(   20) = (   0.1900000   0.1900000   0.1900000), wk =   0.0039841
        k(   21) = (   0.2000000   0.2000000   0.2000000), wk =   0.0039841
        k(   22) = (   0.2100000   0.2100000   0.2100000), wk =   0.0039841
        k(   23) = (   0.2200000   0.2200000   0.2200000), wk =   0.0039841
        k(   24) = (   0.2300000   0.2300000   0.2300000), wk =   0.0039841
        k(   25) = (   0.2400000   0.2400000   0.2400000), wk =   0.0039841
        k(   26) = (   0.2500000   0.2500000   0.2500000), wk =   0.0039841
        k(   27) = (   0.2600000   0.2600000   0.2600000), wk =   0.0039841
        k(   28) = (   0.2700000   0.2700000   0.2700000), wk =   0.0039841
        k(   29) = (   0.2800000   0.2800000   0.2800000), wk =   0.0039841
        k(   30) = (   0.2900000   0.2900000   0.2900000), wk =   0.0039841
        k(   31) = (   0.3000000   0.3000000   0.3000000), wk =   0.0039841
        k(   32) = (   0.3100000   0.3100000   0.3100000), wk =   0.0039841
        k(   33) = (   0.3200000   0.3200000   0.3200000), wk =   0.0039841
        k(   34) = (   0.3300000   0.3300000   0.3300000), wk =   0.0039841
        k(   35) = (   0.3400000   0.3400000   0.3400000), wk =   0.0039841
        k(   36) = (   0.3500000   0.3500000   0.3500000), wk =   0.0039841
        k(   37) = (   0.3600000   0.3600000   0.3600000), wk =   0.0039841
        k(   38) = (   0.3700000   0.3700000   0.3700000), wk =   0.0039841
        k(   39) = (   0.3800000   0.3800000   0.3800000), wk =   0.0039841
        k(   40) = (   0.3900000   0.3900000   0.3900000), wk =   0.0039841
        k(   41) = (   0.4000000   0.4000000   0.4000000), wk =   0.0039841
        k(   42) = (   0.4100000   0.4100000   0.4100000), wk =   0.0039841
        k(   43) = (   0.4200000   0.4200000   0.4200000), wk =   0.0039841
        k(   44) = (   0.4300000   0.4300000   0.4300000), wk =   0.0039841
        k(   45) = (   0.4400000   0.4400000   0.4400000), wk =   0.0039841
        k(   46) = (   0.4500000   0.4500000   0.4500000), wk =   0.0039841
        k(   47) = (   0.4600000   0.4600000   0.4600000), wk =   0.0039841
        k(   48) = (   0.4700000   0.4700000   0.4700000), wk =   0.0039841
        k(   49) = (   0.4800000   0.4800000   0.4800000), wk =   0.0039841
        k(   50) = (   0.4900000   0.4900000   0.4900000), wk =   0.0039841
        k(   51) = (   0.5000000   0.5000000   0.5000000), wk =   0.0039841
        k(   52) = (   0.5032773   0.4934455   0.5032773), wk =   0.0039841
        k(   53) = (   0.5065545   0.4868909   0.5065545), wk =   0.0039841
        k(   54) = (   0.5098318   0.4803364   0.5098318), wk =   0.0039841
        k(   55) = (   0.5131091   0.4737818   0.5131091), wk =   0.0039841
        k(   56) = (   0.5163864   0.4672273   0.5163864), wk =   0.0039841
        k(   57) = (   0.5196636   0.4606727   0.5196636), wk =   0.0039841
        k(   58) = (   0.5229409   0.4541182   0.5229409), wk =   0.0039841
        k(   59) = (   0.5262182   0.4475637   0.5262182), wk =   0.0039841
        k(   60) = (   0.5294954   0.4410091   0.5294954), wk =   0.0039841
        k(   61) = (   0.5327727   0.4344546   0.5327727), wk =   0.0039841
        k(   62) = (   0.5360500   0.4279000   0.5360500), wk =   0.0039841
        k(   63) = (   0.5393273   0.4213455   0.5393273), wk =   0.0039841
        k(   64) = (   0.5426045   0.4147909   0.5426045), wk =   0.0039841
        k(   65) = (   0.5458818   0.4082364   0.5458818), wk =   0.0039841
        k(   66) = (   0.5491591   0.4016819   0.5491591), wk =   0.0039841
        k(   67) = (   0.5524363   0.3951273   0.5524363), wk =   0.0039841
        k(   68) = (   0.5557136   0.3885728   0.5557136), wk =   0.0039841
        k(   69) = (   0.5589909   0.3820182   0.5589909), wk =   0.0039841
        k(   70) = (   0.5622682   0.3754637   0.5622682), wk =   0.0039841
        k(   71) = (   0.5655454   0.3689091   0.5655454), wk =   0.0039841
        k(   72) = (   0.5688227   0.3623546   0.5688227), wk =   0.0039841
        k(   73) = (   0.5721000   0.3558001   0.5721000), wk =   0.0039841
        k(   74) = (   0.5753772   0.3492455   0.5753772), wk =   0.0039841
        k(   75) = (   0.5786545   0.3426910   0.5786545), wk =   0.0039841
        k(   76) = (   0.5819318   0.3361364   0.5819318), wk =   0.0039841
        k(   77) = (   0.5852091   0.3295819   0.5852091), wk =   0.0039841
        k(   78) = (   0.5884863   0.3230274   0.5884863), wk =   0.0039841
        k(   79) = (   0.5917636   0.3164728   0.5917636), wk =   0.0039841
        k(   80) = (   0.5950409   0.3099183   0.5950409), wk =   0.0039841
        k(   81) = (   0.5983181   0.3033637   0.5983181), wk =   0.0039841
        k(   82) = (   0.6015954   0.2968092   0.6015954), wk =   0.0039841
        k(   83) = (   0.6048727   0.2902546   0.6048727), wk =   0.0039841
        k(   84) = (   0.6081500   0.2837001   0.6081500), wk =   0.0039841
        k(   85) = (   0.6114272   0.2771456   0.6114272), wk =   0.0039841
        k(   86) = (   0.6147045   0.2705910   0.6147045), wk =   0.0039841
        k(   87) = (   0.6179818   0.2640365   0.6179818), wk =   0.0039841
        k(   88) = (   0.6212590   0.2574819   0.6212590), wk =   0.0039841
        k(   89) = (   0.6245363   0.2509274   0.6245363), wk =   0.0039841
        k(   90) = (   0.6278136   0.2443728   0.6278136), wk =   0.0039841
        k(   91) = (   0.6310909   0.2378183   0.6310909), wk =   0.0039841
        k(   92) = (   0.6343681   0.2312638   0.6343681), wk =   0.0039841
        k(   93) = (   0.6376454   0.2247092   0.6376454), wk =   0.0039841
        k(   94) = (   0.6409227   0.2181547   0.6409227), wk =   0.0039841
        k(   95) = (   0.6441999   0.2116001   0.6441999), wk =   0.0039841
        k(   96) = (   0.6474772   0.2050456   0.6474772), wk =   0.0039841
        k(   97) = (   0.6507545   0.1984910   0.6507545), wk =   0.0039841
        k(   98) = (   0.6540317   0.1919365   0.6540317), wk =   0.0039841
        k(   99) = (   0.6573090   0.1853820   0.6573090), wk =   0.0039841
        k(  100) = (   0.6605863   0.1788274   0.6605863), wk =   0.0039841
        k(  101) = (   0.6638636   0.1722729   0.6638636), wk =   0.0039841
        k(  102) = (   0.6605863   0.1688274   0.6605863), wk =   0.0039841
        k(  103) = (   0.6573090   0.1653820   0.6573090), wk =   0.0039841
        k(  104) = (   0.6540317   0.1619365   0.6540317), wk =   0.0039841
        k(  105) = (   0.6507545   0.1584910   0.6507545), wk =   0.0039841
        k(  106) = (   0.6474772   0.1550456   0.6474772), wk =   0.0039841
        k(  107) = (   0.6441999   0.1516001   0.6441999), wk =   0.0039841
        k(  108) = (   0.6409227   0.1481547   0.6409227), wk =   0.0039841
        k(  109) = (   0.6376454   0.1447092   0.6376454), wk =   0.0039841
        k(  110) = (   0.6343681   0.1412638   0.6343681), wk =   0.0039841
        k(  111) = (   0.6310909   0.1378183   0.6310909), wk =   0.0039841
        k(  112) = (   0.6278136   0.1343728   0.6278136), wk =   0.0039841
        k(  113) = (   0.6245363   0.1309274   0.6245363), wk =   0.0039841
        k(  114) = (   0.6212590   0.1274819   0.6212590), wk =   0.0039841
        k(  115) = (   0.6179818   0.1240365   0.6179818), wk =   0.0039841
        k(  116) = (   0.6147045   0.1205910   0.6147045), wk =   0.0039841
        k(  117) = (   0.6114272   0.1171456   0.6114272), wk =   0.0039841
        k(  118) = (   0.6081500   0.1137001   0.6081500), wk =   0.0039841
        k(  119) = (   0.6048727   0.1102546   0.6048727), wk =   0.0039841
        k(  120) = (   0.6015954   0.1068092   0.6015954), wk =   0.0039841
        k(  121) = (   0.5983181   0.1033637   0.5983181), wk =   0.0039841
        k(  122) = (   0.5950409   0.0999183   0.5950409), wk =   0.0039841
        k(  123) = (   0.5917636   0.0964728   0.5917636), wk =   0.0039841
        k(  124) = (   0.5884863   0.0930274   0.5884863), wk =   0.0039841
        k(  125) = (   0.5852091   0.0895819   0.5852091), wk =   0.0039841
        k(  126) = (   0.5819318   0.0861364   0.5819318), wk =   0.0039841
        k(  127) = (   0.5786545   0.0826910   0.5786545), wk =   0.0039841
        k(  128) = (   0.5753772   0.0792455   0.5753772), wk =   0.0039841
        k(  129) = (   0.5721000   0.0758001   0.5721000), wk =   0.0039841
        k(  130) = (   0.5688227   0.0723546   0.5688227), wk =   0.0039841
        k(  131) = (   0.5655454   0.0689091   0.5655454), wk =   0.0039841
        k(  132) = (   0.5622682   0.0654637   0.5622682), wk =   0.0039841
        k(  133) = (   0.5589909   0.0620182   0.5589909), wk =   0.0039841
        k(  134) = (   0.5557136   0.0585728   0.5557136), wk =   0.0039841
        k(  135) = (   0.5524363   0.0551273   0.5524363), wk =   0.0039841
        k(  136) = (   0.5491591   0.0516819   0.5491591), wk =   0.0039841
        k(  137) = (   0.5458818   0.0482364   0.5458818), wk =   0.0039841
        k(  138) = (   0.5426045   0.0447909   0.5426045), wk =   0.0039841
        k(  139) = (   0.5393273   0.0413455   0.5393273), wk =   0.0039841
        k(  140) = (   0.5360500   0.0379000   0.5360500), wk =   0.0039841
        k(  141) = (   0.5327727   0.0344546   0.5327727), wk =   0.0039841
        k(  142) = (   0.5294954   0.0310091   0.5294954), wk =   0.0039841
        k(  143) = (   0.5262182   0.0275637   0.5262182), wk =   0.0039841
        k(  144) = (   0.5229409   0.0241182   0.5229409), wk =   0.0039841
        k(  145) = (   0.5196636   0.0206727   0.5196636), wk =   0.0039841
        k(  146) = (   0.5163864   0.0172273   0.5163864), wk =   0.0039841
        k(  147) = (   0.5131091   0.0137818   0.5131091), wk =   0.0039841
        k(  148) = (   0.5098318   0.0103364   0.5098318), wk =   0.0039841
        k(  149) = (   0.5065545   0.0068909   0.5065545), wk =   0.0039841
        k(  150) = (   0.5032773   0.0034455   0.5032773), wk =   0.0039841
        k(  151) = (   0.5000000   0.0000000   0.5000000), wk =   0.0039841
        k(  152) = (   0.4900000  -0.0000000   0.4900000), wk =   0.0039841
        k(  153) = (   0.4800000  -0.0000000   0.4800000), wk =   0.0039841
        k(  154) = (   0.4700000  -0.0000000   0.4700000), wk =   0.0039841
        k(  155) = (   0.4600000   0.0000000   0.4600000), wk =   0.0039841
        k(  156) = (   0.4500000  -0.0000000   0.4500000), wk =   0.0039841
        k(  157) = (   0.4400000   0.0000000   0.4400000), wk =   0.0039841
        k(  158) = (   0.4300000   0.0000000   0.4300000), wk =   0.0039841
        k(  159) = (   0.4200000   0.0000000   0.4200000), wk =   0.0039841
        k(  160) = (   0.4100000   0.0000000   0.4100000), wk =   0.0039841
        k(  161) = (   0.4000000   0.0000000   0.4000000), wk =   0.0039841
        k(  162) = (   0.3900000   0.0000000   0.3900000), wk =   0.0039841
        k(  163) = (   0.3800000  -0.0000000   0.3800000), wk =   0.0039841
        k(  164) = (   0.3700000  -0.0000000   0.3700000), wk =   0.0039841
        k(  165) = (   0.3600000  -0.0000000   0.3600000), wk =   0.0039841
        k(  166) = (   0.3500000   0.0000000   0.3500000), wk =   0.0039841
        k(  167) = (   0.3400000  -0.0000000   0.3400000), wk =   0.0039841
        k(  168) = (   0.3300000  -0.0000000   0.3300000), wk =   0.0039841
        k(  169) = (   0.3200000  -0.0000000   0.3200000), wk =   0.0039841
        k(  170) = (   0.3100000   0.0000000   0.3100000), wk =   0.0039841
        k(  171) = (   0.3000000   0.0000000   0.3000000), wk =   0.0039841
        k(  172) = (   0.2900000   0.0000000   0.2900000), wk =   0.0039841
        k(  173) = (   0.2800000   0.0000000   0.2800000), wk =   0.0039841
        k(  174) = (   0.2700000   0.0000000   0.2700000), wk =   0.0039841
        k(  175) = (   0.2600000  -0.0000000   0.2600000), wk =   0.0039841
        k(  176) = (   0.2500000   0.0000000   0.2500000), wk =   0.0039841
        k(  177) = (   0.2400000  -0.0000000   0.2400000), wk =   0.0039841
        k(  178) = (   0.2300000   0.0000000   0.2300000), wk =   0.0039841
        k(  179) = (   0.2200000   0.0000000   0.2200000), wk =   0.0039841
        k(  180) = (   0.2100000   0.0000000   0.2100000), wk =   0.0039841
        k(  181) = (   0.2000000   0.0000000   0.2000000), wk =   0.0039841
        k(  182) = (   0.1900000  -0.0000000   0.1900000), wk =   0.0039841
        k(  183) = (   0.1800000  -0.0000000   0.1800000), wk =   0.0039841
        k(  184) = (   0.1700000  -0.0000000   0.1700000), wk =   0.0039841
        k(  185) = (   0.1600000  -0.0000000   0.1600000), wk =   0.0039841
        k(  186) = (   0.1500000  -0.0000000   0.1500000), wk =   0.0039841
        k(  187) = (   0.1400000   0.0000000   0.1400000), wk =   0.0039841
        k(  188) = (   0.1300000  -0.0000000   0.1300000), wk =   0.0039841
        k(  189) = (   0.1200000  -0.0000000   0.1200000), wk =   0.0039841
        k(  190) = (   0.1100000   0.0000000   0.1100000), wk =   0.0039841
        k(  191) = (   0.1000000   0.0000000   0.1000000), wk =   0.0039841
        k(  192) = (   0.0900000   0.0000000   0.0900000), wk =   0.0039841
        k(  193) = (   0.0800000  -0.0000000   0.0800000), wk =   0.0039841
        k(  194) = (   0.0700000   0.0000000   0.0700000), wk =   0.0039841
        k(  195) = (   0.0600000  -0.0000000   0.0600000), wk =   0.0039841
        k(  196) = (   0.0500000   0.0000000   0.0500000), wk =   0.0039841
        k(  197) = (   0.0400000   0.0000000   0.0400000), wk =   0.0039841
        k(  198) = (   0.0300000   0.0000000   0.0300000), wk =   0.0039841
        k(  199) = (   0.0200000  -0.0000000   0.0200000), wk =   0.0039841
        k(  200) = (   0.0100000  -0.0000000   0.0100000), wk =   0.0039841
        k(  201) = (   0.0000000   0.0000000   0.0000000), wk =   0.0039841
        k(  202) = (   0.0100000  -0.0000000   0.0000000), wk =   0.0039841
        k(  203) = (   0.0200000  -0.0000000   0.0000000), wk =   0.0039841
        k(  204) = (   0.0300000  -0.0000000  -0.0000000), wk =   0.0039841
        k(  205) = (   0.0400000  -0.0000000   0.0000000), wk =   0.0039841
        k(  206) = (   0.0500000   0.0000000   0.0000000), wk =   0.0039841
        k(  207) = (   0.0600000  -0.0000000  -0.0000000), wk =   0.0039841
        k(  208) = (   0.0700000   0.0000000   0.0000000), wk =   0.0039841
        k(  209) = (   0.0800000  -0.0000000   0.0000000), wk =   0.0039841
        k(  210) = (   0.0900000  -0.0000000   0.0000000), wk =   0.0039841
        k(  211) = (   0.1000000   0.0000000   0.0000000), wk =   0.0039841
        k(  212) = (   0.1100000   0.0000000   0.0000000), wk =   0.0039841
        k(  213) = (   0.1200000  -0.0000000  -0.0000000), wk =   0.0039841
        k(  214) = (   0.1300000  -0.0000000   0.0000000), wk =   0.0039841
        k(  215) = (   0.1400000   0.0000000   0.0000000), wk =   0.0039841
        k(  216) = (   0.1500000   0.0000000  -0.0000000), wk =   0.0039841
        k(  217) = (   0.1600000  -0.0000000   0.0000000), wk =   0.0039841
        k(  218) = (   0.1700000  -0.0000000  -0.0000000), wk =   0.0039841
        k(  219) = (   0.1800000  -0.0000000   0.0000000), wk =   0.0039841
        k(  220) = (   0.1900000  -0.0000000  -0.0000000), wk =   0.0039841
        k(  221) = (   0.2000000   0.0000000   0.0000000), wk =   0.0039841
        k(  222) = (   0.2100000   0.0000000   0.0000000), wk =   0.0039841
        k(  223) = (   0.2200000   0.0000000   0.0000000), wk =   0.0039841
        k(  224) = (   0.2300000   0.0000000   0.0000000), wk =   0.0039841
        k(  225) = (   0.2400000  -0.0000000  -0.0000000), wk =   0.0039841
        k(  226) = (   0.2500000   0.0000000   0.0000000), wk =   0.0039841
        k(  227) = (   0.2600000  -0.0000000   0.0000000), wk =   0.0039841
        k(  228) = (   0.2700000   0.0000000  -0.0000000), wk =   0.0039841
        k(  229) = (   0.2800000   0.0000000   0.0000000), wk =   0.0039841
        k(  230) = (   0.2900000   0.0000000   0.0000000), wk =   0.0039841
        k(  231) = (   0.3000000   0.0000000  -0.0000000), wk =   0.0039841
        k(  232) = (   0.3100000   0.0000000   0.0000000), wk =   0.0039841
        k(  233) = (   0.3200000  -0.0000000   0.0000000), wk =   0.0039841
        k(  234) = (   0.3300000   0.0000000   0.0000000), wk =   0.0039841
        k(  235) = (   0.3400000  -0.0000000  -0.0000000), wk =   0.0039841
        k(  236) = (   0.3500000   0.0000000   0.0000000), wk =   0.0039841
        k(  237) = (   0.3600000  -0.0000000   0.0000000), wk =   0.0039841
        k(  238) = (   0.3700000  -0.0000000   0.0000000), wk =   0.0039841
        k(  239) = (   0.3800000  -0.0000000  -0.0000000), wk =   0.0039841
        k(  240) = (   0.3900000   0.0000000   0.0000000), wk =   0.0039841
        k(  241) = (   0.4000000   0.0000000   0.0000000), wk =   0.0039841
        k(  242) = (   0.4100000   0.0000000   0.0000000), wk =   0.0039841
        k(  243) = (   0.4200000   0.0000000   0.0000000), wk =   0.0039841
        k(  244) = (   0.4300000   0.0000000  -0.0000000), wk =   0.0039841
        k(  245) = (   0.4400000   0.0000000   0.0000000), wk =   0.0039841
        k(  246) = (   0.4500000  -0.0000000   0.0000000), wk =   0.0039841
        k(  247) = (   0.4600000   0.0000000   0.0000000), wk =   0.0039841
        k(  248) = (   0.4700000   0.0000000  -0.0000000), wk =   0.0039841
        k(  249) = (   0.4800000  -0.0000000  -0.0000000), wk =   0.0039841
        k(  250) = (   0.4900000  -0.0000000  -0.0000000), wk =   0.0039841
        k(  251) = (   0.5000000   0.0000000   0.0000000), wk =   0.0039841

     Dense  grid:   187971 G-vectors     FFT dimensions: ( 256, 256, 256)

     Dynamical RAM for                 wfc:       5.38 MB

     Dynamical RAM for     wfc (w. buffer):       5.38 MB

     Dynamical RAM for             U proj.:       0.99 MB

     Dynamical RAM for  U proj. (w. buff.):       0.99 MB

     Dynamical RAM for           str. fact:       0.36 MB

     Dynamical RAM for           local pot:       0.00 MB

     Dynamical RAM for          nlocal pot:       5.33 MB

     Dynamical RAM for                qrad:      13.03 MB

     Dynamical RAM for          rho,v,vnew:      49.08 MB

     Dynamical RAM for           G-vectors:       0.38 MB

     Dynamical RAM for          h,s,v(r/c):       2.64 MB

     Dynamical RAM for          <psi|beta>:       3.49 MB

     Dynamical RAM for                 psi:      10.75 MB

     Dynamical RAM for                hpsi:      10.75 MB

     Dynamical RAM for                spsi:      10.75 MB

     Dynamical RAM for      wfcinit/wfcrot:       9.38 MB

     Dynamical RAM for           addusdens:      55.66 MB

     Estimated static dynamical RAM per process >     106.99 MB

     Estimated max dynamical RAM per process >     162.65 MB

     Estimated total dynamical RAM >       5.08 GB

     Check: negative core charge=   -0.000015
     Generating pointlists ...
     new r_m :   0.0448 (alat units)  2.3181 (a.u.) for type    1
     new r_m :   0.0448 (alat units)  2.3181 (a.u.) for type    2
     new r_m :   0.0456 (alat units)  2.3625 (a.u.) for type    3
     new r_m :   0.0448 (alat units)  2.3181 (a.u.) for type    4

     The potential is recalculated from file :
     ./tmp/MnBi2Te4.save/charge-density

 --- in v_hubbard ---
Hub. E (dc, noflip, flip, total)    1.7419   1.7735  -0.0001   0.0315
 -------

     STARTING HUBBARD OCCUPATIONS:

     ================= HUBBARD OCCUPATIONS ================
     ------------------------ ATOM    1 ------------------------
     Tr[ns(  1)] (up, down, total) =   4.94417  0.44956  5.39373
     eigenvalues:
       0.022  0.022  0.023  0.189  0.193  0.974  0.985  0.995  0.995  0.996
     eigenvectors (columns):
      -0.000  0.008 -0.000 -0.000  0.007 -0.004  0.001  0.016  0.005 -1.000
       0.000 -0.000  0.000  0.000 -0.000  0.000  0.000  0.000  0.000  0.000
       0.006 -0.000 -0.008 -0.005 -0.001 -0.515  0.536  0.477  0.468  0.012
      -0.006  0.000 -0.000 -0.004  0.000  0.477 -0.469  0.520  0.532  0.009
      -0.000  0.000  0.000  0.000 -0.000 -0.000 -0.000  0.000  0.000  0.000
      -0.000  0.000 -0.000  0.000  0.000  0.000  0.000  0.000  0.000  0.000
       0.457  0.439  0.005  0.526  0.567 -0.000 -0.005 -0.000  0.006  0.008
       0.000 -0.000  0.000 -0.000  0.000  0.000  0.000 -0.000 -0.000 -0.000
       0.000 -0.000  0.000  0.000 -0.000 -0.000 -0.000  0.000 -0.000 -0.000
       0.517  0.575  0.004 -0.464 -0.432  0.001 -0.006  0.000 -0.004  0.001
     occupations, | n_(i1, i2)^(sigma1, sigma2) |:
       0.996  0.000  0.000  0.000  0.000  0.000  0.007  0.007  0.002  0.002
       0.000  0.986  0.003  0.003  0.008  0.008  0.000  0.000  0.005  0.005
       0.000  0.003  0.986  0.008  0.003  0.008  0.000  0.001  0.005  0.005
       0.000  0.003  0.008  0.988  0.003  0.000  0.004  0.005  0.001  0.001
       0.000  0.008  0.003  0.003  0.988  0.000  0.005  0.004  0.001  0.001
       0.000  0.008  0.008  0.000  0.000  0.023  0.000  0.000  0.000  0.000
       0.007  0.000  0.000  0.004  0.005  0.000  0.123  0.007  0.000  0.083
       0.007  0.000  0.001  0.005  0.004  0.000  0.007  0.123  0.083  0.000
       0.002  0.005  0.005  0.001  0.001  0.000  0.000  0.083  0.090  0.005
       0.002  0.005  0.005  0.001  0.001  0.000  0.083  0.000  0.005  0.090
     Atomic magnetic moment mx, my, mz =     0.000000    0.000114    4.494604
     ------------------------ ATOM    2 ------------------------
     Tr[ns(  2)] (up, down, total) =   0.44986  4.94411  5.39397
     eigenvalues:
       0.022  0.022  0.023  0.189  0.193  0.973  0.985  0.995  0.995  0.996
     eigenvectors (columns):
       0.029 -0.025 -0.999  0.000  0.000  0.009  0.000  0.008  0.000 -0.000
       0.000 -0.000  0.000  0.000 -0.000  0.000  0.000 -0.000  0.000 -0.000
      -0.458  0.438 -0.025 -0.529 -0.564 -0.001  0.005 -0.000 -0.005  0.008
      -0.519  0.572 -0.029  0.466  0.430 -0.000  0.006  0.000  0.004  0.001
       0.000 -0.000  0.000 -0.000  0.000  0.000  0.000  0.000  0.000 -0.000
      -0.000  0.000 -0.000 -0.000  0.000  0.000 -0.000 -0.000  0.000 -0.000
       0.006 -0.000 -0.008 -0.005  0.000 -0.519  0.529 -0.484  0.465  0.009
      -0.000 -0.000  0.000 -0.000 -0.000  0.000  0.000  0.000  0.000 -0.000
      -0.000 -0.000  0.000  0.000 -0.000 -0.000 -0.000  0.000  0.000 -0.000
      -0.006 -0.000 -0.000 -0.004 -0.001  0.484 -0.465 -0.523  0.525  0.005
     occupations, | n_(i1, i2)^(sigma1, sigma2) |:
       0.023  0.000  0.000  0.000  0.000  0.000  0.008  0.008  0.000  0.000
       0.000  0.123  0.007  0.000  0.083  0.007  0.001  0.001  0.005  0.005
       0.000  0.007  0.123  0.083  0.000  0.007  0.001  0.000  0.004  0.005
       0.000  0.000  0.083  0.090  0.005  0.002  0.005  0.005  0.001  0.001
       0.000  0.083  0.000  0.005  0.090  0.002  0.005  0.005  0.001  0.002
       0.000  0.007  0.007  0.002  0.002  0.996  0.000  0.000  0.000  0.000
       0.008  0.001  0.001  0.005  0.005  0.000  0.986  0.003  0.003  0.008
       0.008  0.001  0.000  0.005  0.005  0.000  0.003  0.986  0.008  0.003
       0.000  0.005  0.004  0.001  0.001  0.000  0.003  0.008  0.988  0.003
       0.000  0.005  0.005  0.001  0.002  0.000  0.008  0.003  0.003  0.988
     Atomic magnetic moment mx, my, mz =    -0.000000   -0.001239   -4.494246

     Number of occupied Hubbard levels =   10.7877

     Atomic wfc used for Hubbard projectors are orthogonalized

     Starting wfcs are  176 randomized atomic wfcs +   64 random wfcs
     Checking if some PAW data can be deallocated... 
       PAW data deallocated on   29 nodes for type:  1
       PAW data deallocated on   29 nodes for type:  2
       PAW data deallocated on   22 nodes for type:  3
       PAW data deallocated on   16 nodes for type:  4

     Band Structure Calculation
     Davidson diagonalization with overlap

     Computing kpt #:     1  of   251
     total cpu time spent up to now is      437.0 secs

     Computing kpt #:     2  of   251
     c_bands:  1 eigenvalues not converged
     total cpu time spent up to now is      853.7 secs

     Computing kpt #:     3  of   251
     total cpu time spent up to now is     1212.7 secs

     Computing kpt #:     4  of   251
     total cpu time spent up to now is     1575.7 secs

     Computing kpt #:     5  of   251
     total cpu time spent up to now is     1935.3 secs

     Computing kpt #:     6  of   251
     total cpu time spent up to now is     2294.6 secs

     Computing kpt #:     7  of   251
     total cpu time spent up to now is     2657.5 secs

     Computing kpt #:     8  of   251
     total cpu time spent up to now is     3020.5 secs

     Computing kpt #:     9  of   251
     total cpu time spent up to now is     3383.0 secs

     Computing kpt #:    10  of   251
     total cpu time spent up to now is     3744.8 secs

     Computing kpt #:    11  of   251
     total cpu time spent up to now is     4105.8 secs

     Computing kpt #:    12  of   251
     total cpu time spent up to now is     4467.8 secs

     Computing kpt #:    13  of   251
     total cpu time spent up to now is     4829.7 secs

     Computing kpt #:    14  of   251
     total cpu time spent up to now is     5192.9 secs

     Computing kpt #:    15  of   251
     total cpu time spent up to now is     5555.7 secs

     Computing kpt #:    16  of   251
     total cpu time spent up to now is     5919.4 secs

     Computing kpt #:    17  of   251
     total cpu time spent up to now is     6282.3 secs

     Computing kpt #:    18  of   251
     total cpu time spent up to now is     6622.5 secs

     Computing kpt #:    19  of   251
     total cpu time spent up to now is     6963.3 secs

     Computing kpt #:    20  of   251
     total cpu time spent up to now is     7303.6 secs

     Computing kpt #:    21  of   251
     total cpu time spent up to now is     7668.0 secs

     Computing kpt #:    22  of   251
     total cpu time spent up to now is     8008.5 secs

     Computing kpt #:    23  of   251
     total cpu time spent up to now is     8348.9 secs

     Computing kpt #:    24  of   251
     total cpu time spent up to now is     8689.6 secs

     Computing kpt #:    25  of   251
     total cpu time spent up to now is     9031.4 secs

     Computing kpt #:    26  of   251
     total cpu time spent up to now is     9396.1 secs

     Computing kpt #:    27  of   251
     total cpu time spent up to now is     9737.8 secs

     Computing kpt #:    28  of   251
     total cpu time spent up to now is    10103.0 secs

     Computing kpt #:    29  of   251
     total cpu time spent up to now is    10469.9 secs

     Computing kpt #:    30  of   251
     total cpu time spent up to now is    10836.0 secs

     Computing kpt #:    31  of   251
     total cpu time spent up to now is    11202.5 secs

     Computing kpt #:    32  of   251
     total cpu time spent up to now is    11569.8 secs

     Computing kpt #:    33  of   251
     total cpu time spent up to now is    11937.8 secs

     Computing kpt #:    34  of   251
     total cpu time spent up to now is    12304.5 secs

     Computing kpt #:    35  of   251
     total cpu time spent up to now is    12675.0 secs

     Computing kpt #:    36  of   251
     total cpu time spent up to now is    13043.0 secs

     Computing kpt #:    37  of   251
     total cpu time spent up to now is    13411.5 secs

     Computing kpt #:    38  of   251
     total cpu time spent up to now is    13831.6 secs

     Computing kpt #:    39  of   251
     total cpu time spent up to now is    14200.7 secs

     Computing kpt #:    40  of   251
     total cpu time spent up to now is    14569.5 secs

     Computing kpt #:    41  of   251
     total cpu time spent up to now is    14939.3 secs

     Computing kpt #:    42  of   251
     total cpu time spent up to now is    15308.9 secs

     Computing kpt #:    43  of   251
     total cpu time spent up to now is    15706.6 secs

     Computing kpt #:    44  of   251
     total cpu time spent up to now is    16100.7 secs

     Computing kpt #:    45  of   251
     total cpu time spent up to now is    16503.6 secs

     Computing kpt #:    46  of   251
     total cpu time spent up to now is    16901.1 secs

     Computing kpt #:    47  of   251
     total cpu time spent up to now is    17270.3 secs

     Computing kpt #:    48  of   251
     total cpu time spent up to now is    17644.6 secs

     Computing kpt #:    49  of   251
     total cpu time spent up to now is    18013.6 secs

     Computing kpt #:    50  of   251
     total cpu time spent up to now is    18358.2 secs

     Computing kpt #:    51  of   251
     total cpu time spent up to now is    18726.4 secs

     Computing kpt #:    52  of   251
     total cpu time spent up to now is    19071.2 secs

     Computing kpt #:    53  of   251
     total cpu time spent up to now is    19543.4 secs

     Computing kpt #:    54  of   251
     total cpu time spent up to now is    19919.1 secs

     Computing kpt #:    55  of   251
     c_bands:  2 eigenvalues not converged
     total cpu time spent up to now is    20356.6 secs

     Computing kpt #:    56  of   251
     c_bands:  1 eigenvalues not converged
     total cpu time spent up to now is    20856.1 secs

     Computing kpt #:    57  of   251
     total cpu time spent up to now is    21237.5 secs

     Computing kpt #:    58  of   251
     total cpu time spent up to now is    21613.9 secs

     Computing kpt #:    59  of   251
     total cpu time spent up to now is    21993.5 secs

     Computing kpt #:    60  of   251
     total cpu time spent up to now is    22370.6 secs

     Computing kpt #:    61  of   251
     total cpu time spent up to now is    22771.3 secs

     Computing kpt #:    62  of   251
     total cpu time spent up to now is    23145.7 secs

     Computing kpt #:    63  of   251
     total cpu time spent up to now is    23520.1 secs

     Computing kpt #:    64  of   251
     total cpu time spent up to now is    23888.5 secs

     Computing kpt #:    65  of   251
     total cpu time spent up to now is    24256.1 secs

     Computing kpt #:    66  of   251
     total cpu time spent up to now is    24624.0 secs

     Computing kpt #:    67  of   251
     total cpu time spent up to now is    24990.6 secs

     Computing kpt #:    68  of   251
     total cpu time spent up to now is    25353.6 secs

     Computing kpt #:    69  of   251
     total cpu time spent up to now is    25715.0 secs

     Computing kpt #:    70  of   251
     total cpu time spent up to now is    26128.4 secs

     Computing kpt #:    71  of   251
     total cpu time spent up to now is    26490.7 secs

     Computing kpt #:    72  of   251
     total cpu time spent up to now is    26899.8 secs

     Computing kpt #:    73  of   251
     total cpu time spent up to now is    27252.4 secs

     Computing kpt #:    74  of   251
     total cpu time spent up to now is    27630.4 secs

     Computing kpt #:    75  of   251
     total cpu time spent up to now is    27979.0 secs

     Computing kpt #:    76  of   251
     total cpu time spent up to now is    28328.9 secs

     Computing kpt #:    77  of   251
     total cpu time spent up to now is    28703.1 secs

     Computing kpt #:    78  of   251
     total cpu time spent up to now is    29103.9 secs

     Computing kpt #:    79  of   251
     total cpu time spent up to now is    29451.6 secs

     Computing kpt #:    80  of   251
     total cpu time spent up to now is    29797.6 secs

     Computing kpt #:    81  of   251
     total cpu time spent up to now is    30119.0 secs

     Computing kpt #:    82  of   251
     total cpu time spent up to now is    30439.8 secs

     Computing kpt #:    83  of   251
     total cpu time spent up to now is    30760.4 secs

     Computing kpt #:    84  of   251
     total cpu time spent up to now is    31294.0 secs

     Computing kpt #:    85  of   251
     total cpu time spent up to now is    31637.1 secs

     Computing kpt #:    86  of   251
     total cpu time spent up to now is    31981.8 secs

     Computing kpt #:    87  of   251
     total cpu time spent up to now is    32326.9 secs

     Computing kpt #:    88  of   251
     total cpu time spent up to now is    32671.8 secs

     Computing kpt #:    89  of   251
     total cpu time spent up to now is    33018.9 secs

     Computing kpt #:    90  of   251
     total cpu time spent up to now is    33366.5 secs

     Computing kpt #:    91  of   251
     total cpu time spent up to now is    33713.6 secs

     Computing kpt #:    92  of   251
     total cpu time spent up to now is    34062.5 secs

     Computing kpt #:    93  of   251
     total cpu time spent up to now is    34412.6 secs

     Computing kpt #:    94  of   251
     total cpu time spent up to now is    34767.9 secs

     Computing kpt #:    95  of   251
     total cpu time spent up to now is    35148.7 secs

     Computing kpt #:    96  of   251
     total cpu time spent up to now is    35532.5 secs

     Computing kpt #:    97  of   251
     total cpu time spent up to now is    35939.2 secs

     Computing kpt #:    98  of   251
     c_bands:  1 eigenvalues not converged
     total cpu time spent up to now is    36351.1 secs

     Computing kpt #:    99  of   251
     total cpu time spent up to now is    36761.3 secs

     Computing kpt #:   100  of   251
     total cpu time spent up to now is    37123.1 secs

     Computing kpt #:   101  of   251
     total cpu time spent up to now is    37493.4 secs

     Computing kpt #:   102  of   251
     total cpu time spent up to now is    37852.3 secs

     Computing kpt #:   103  of   251
     total cpu time spent up to now is    38217.0 secs

     Computing kpt #:   104  of   251
     total cpu time spent up to now is    38579.7 secs

     Computing kpt #:   105  of   251
     total cpu time spent up to now is    38944.6 secs

     Computing kpt #:   106  of   251
     total cpu time spent up to now is    39309.6 secs

     Computing kpt #:   107  of   251
     total cpu time spent up to now is    39673.7 secs

     Computing kpt #:   108  of   251
     total cpu time spent up to now is    40037.2 secs

     Computing kpt #:   109  of   251
     total cpu time spent up to now is    40400.3 secs

     Computing kpt #:   110  of   251
     total cpu time spent up to now is    40763.4 secs

     Computing kpt #:   111  of   251
     total cpu time spent up to now is    41125.9 secs

     Computing kpt #:   112  of   251
     total cpu time spent up to now is    41489.6 secs

     Computing kpt #:   113  of   251
     total cpu time spent up to now is    41852.3 secs

     Computing kpt #:   114  of   251
     total cpu time spent up to now is    42216.1 secs

     Computing kpt #:   115  of   251
     total cpu time spent up to now is    42580.1 secs

     Computing kpt #:   116  of   251
     total cpu time spent up to now is    42944.5 secs

     Computing kpt #:   117  of   251
     total cpu time spent up to now is    43307.1 secs

     Computing kpt #:   118  of   251
     total cpu time spent up to now is    43668.6 secs

     Computing kpt #:   119  of   251
     total cpu time spent up to now is    44031.8 secs

     Computing kpt #:   120  of   251
     total cpu time spent up to now is    44425.6 secs

     Computing kpt #:   121  of   251
     total cpu time spent up to now is    44789.7 secs

     Computing kpt #:   122  of   251
     total cpu time spent up to now is    45153.3 secs

     Computing kpt #:   123  of   251
     total cpu time spent up to now is    45517.2 secs

     Computing kpt #:   124  of   251
     total cpu time spent up to now is    45881.0 secs

     Computing kpt #:   125  of   251
     total cpu time spent up to now is    46245.1 secs

     Computing kpt #:   126  of   251
     total cpu time spent up to now is    46609.6 secs

     Computing kpt #:   127  of   251
     total cpu time spent up to now is    46972.9 secs

     Computing kpt #:   128  of   251
     total cpu time spent up to now is    47334.5 secs

     Computing kpt #:   129  of   251
     total cpu time spent up to now is    47698.2 secs

     Computing kpt #:   130  of   251
     total cpu time spent up to now is    48060.5 secs

     Computing kpt #:   131  of   251
     total cpu time spent up to now is    48424.1 secs

     Computing kpt #:   132  of   251
     total cpu time spent up to now is    48786.1 secs

     Computing kpt #:   133  of   251
     total cpu time spent up to now is    49148.0 secs

     Computing kpt #:   134  of   251
     total cpu time spent up to now is    49512.0 secs

     Computing kpt #:   135  of   251
     total cpu time spent up to now is    49875.5 secs

     Computing kpt #:   136  of   251
     total cpu time spent up to now is    50238.3 secs

     Computing kpt #:   137  of   251
     total cpu time spent up to now is    50601.3 secs

     Computing kpt #:   138  of   251
     total cpu time spent up to now is    50963.2 secs

     Computing kpt #:   139  of   251
     total cpu time spent up to now is    51324.4 secs

     Computing kpt #:   140  of   251
     total cpu time spent up to now is    51686.8 secs

     Computing kpt #:   141  of   251
     total cpu time spent up to now is    52025.9 secs

     Computing kpt #:   142  of   251
     total cpu time spent up to now is    52388.0 secs

     Computing kpt #:   143  of   251
     total cpu time spent up to now is    52749.3 secs

     Computing kpt #:   144  of   251
     total cpu time spent up to now is    53110.6 secs

     Computing kpt #:   145  of   251
     total cpu time spent up to now is    53472.4 secs

     Computing kpt #:   146  of   251
     total cpu time spent up to now is    53833.9 secs

     Computing kpt #:   147  of   251
     total cpu time spent up to now is    54195.7 secs

     Computing kpt #:   148  of   251
     total cpu time spent up to now is    54555.9 secs

     Computing kpt #:   149  of   251
     total cpu time spent up to now is    54916.9 secs

     Computing kpt #:   150  of   251
     total cpu time spent up to now is    55278.6 secs

     Computing kpt #:   151  of   251
     total cpu time spent up to now is    55639.6 secs

     Computing kpt #:   152  of   251
     total cpu time spent up to now is    56002.8 secs

     Computing kpt #:   153  of   251
     total cpu time spent up to now is    56364.3 secs

     Computing kpt #:   154  of   251
     total cpu time spent up to now is    56726.6 secs

     Computing kpt #:   155  of   251
     total cpu time spent up to now is    57112.1 secs

     Computing kpt #:   156  of   251
     c_bands:  1 eigenvalues not converged
     total cpu time spent up to now is    57524.5 secs

     Computing kpt #:   157  of   251
     total cpu time spent up to now is    57881.6 secs

     Computing kpt #:   158  of   251
     total cpu time spent up to now is    58237.7 secs

     Computing kpt #:   159  of   251
     total cpu time spent up to now is    58642.8 secs

     Computing kpt #:   160  of   251
     total cpu time spent up to now is    58995.5 secs

     Computing kpt #:   161  of   251
     total cpu time spent up to now is    59371.6 secs

     Computing kpt #:   162  of   251
     total cpu time spent up to now is    59721.0 secs

     Computing kpt #:   163  of   251
     total cpu time spent up to now is    60068.2 secs

     Computing kpt #:   164  of   251
     total cpu time spent up to now is    60415.0 secs

     Computing kpt #:   165  of   251
     total cpu time spent up to now is    60856.9 secs

     Computing kpt #:   166  of   251
     total cpu time spent up to now is    61203.1 secs

     Computing kpt #:   167  of   251
     total cpu time spent up to now is    61553.2 secs

     Computing kpt #:   168  of   251
     total cpu time spent up to now is    61899.3 secs

     Computing kpt #:   169  of   251
     total cpu time spent up to now is    62246.8 secs

     Computing kpt #:   170  of   251
     total cpu time spent up to now is    62624.6 secs

     Computing kpt #:   171  of   251
     total cpu time spent up to now is    62974.9 secs

     Computing kpt #:   172  of   251
     total cpu time spent up to now is    63324.5 secs

     Computing kpt #:   173  of   251
     total cpu time spent up to now is    63675.4 secs

     Computing kpt #:   174  of   251
     total cpu time spent up to now is    64028.7 secs

     Computing kpt #:   175  of   251
     total cpu time spent up to now is    64383.9 secs

     Computing kpt #:   176  of   251
     total cpu time spent up to now is    64739.1 secs

     Computing kpt #:   177  of   251
     total cpu time spent up to now is    65093.9 secs

     Computing kpt #:   178  of   251
     total cpu time spent up to now is    65422.1 secs

     Computing kpt #:   179  of   251
     total cpu time spent up to now is    65776.0 secs

     Computing kpt #:   180  of   251
     total cpu time spent up to now is    66132.3 secs

     Computing kpt #:   181  of   251
     total cpu time spent up to now is    66539.4 secs

     Computing kpt #:   182  of   251
     c_bands:  1 eigenvalues not converged
     total cpu time spent up to now is    66950.7 secs

     Computing kpt #:   183  of   251
     total cpu time spent up to now is    67307.8 secs

     Computing kpt #:   184  of   251
     total cpu time spent up to now is    67668.0 secs

     Computing kpt #:   185  of   251
     total cpu time spent up to now is    68028.1 secs

     Computing kpt #:   186  of   251
     total cpu time spent up to now is    68392.1 secs

     Computing kpt #:   187  of   251
     total cpu time spent up to now is    68756.7 secs

     Computing kpt #:   188  of   251
     total cpu time spent up to now is    69121.6 secs

     Computing kpt #:   189  of   251
     total cpu time spent up to now is    69493.1 secs

     Computing kpt #:   190  of   251
     total cpu time spent up to now is    69864.9 secs

     Computing kpt #:   191  of   251
     total cpu time spent up to now is    70238.5 secs

     Computing kpt #:   192  of   251
     total cpu time spent up to now is    70614.6 secs

     Computing kpt #:   193  of   251
     total cpu time spent up to now is    70996.4 secs

     Computing kpt #:   194  of   251
     total cpu time spent up to now is    71744.4 secs

     Computing kpt #:   195  of   251
     total cpu time spent up to now is    72120.9 secs

     Computing kpt #:   196  of   251
     total cpu time spent up to now is    72497.1 secs

     Computing kpt #:   197  of   251
     total cpu time spent up to now is    72869.0 secs

     Computing kpt #:   198  of   251
     c_bands:  1 eigenvalues not converged
     total cpu time spent up to now is    73291.6 secs

     Computing kpt #:   199  of   251
     total cpu time spent up to now is    73803.4 secs

     Computing kpt #:   200  of   251
     total cpu time spent up to now is    74167.4 secs

     Computing kpt #:   201  of   251
     total cpu time spent up to now is    74525.5 secs

     Computing kpt #:   202  of   251
     total cpu time spent up to now is    74888.2 secs

     Computing kpt #:   203  of   251
     total cpu time spent up to now is    75282.6 secs

     Computing kpt #:   204  of   251
     total cpu time spent up to now is    75702.4 secs

     Computing kpt #:   205  of   251
     total cpu time spent up to now is    76075.8 secs

     Computing kpt #:   206  of   251
     total cpu time spent up to now is    76454.1 secs

     Computing kpt #:   207  of   251
     total cpu time spent up to now is    76835.6 secs

     Computing kpt #:   208  of   251
     total cpu time spent up to now is    77241.8 secs

     Computing kpt #:   209  of   251
     total cpu time spent up to now is    77595.8 secs

     Computing kpt #:   210  of   251
     total cpu time spent up to now is    77974.5 secs

     Computing kpt #:   211  of   251
     total cpu time spent up to now is    78351.4 secs

     Computing kpt #:   212  of   251
     total cpu time spent up to now is    78729.1 secs

     Computing kpt #:   213  of   251
     total cpu time spent up to now is    79103.0 secs

     Computing kpt #:   214  of   251
     total cpu time spent up to now is    79474.7 secs

     Computing kpt #:   215  of   251
     total cpu time spent up to now is    79839.2 secs

     Computing kpt #:   216  of   251
     total cpu time spent up to now is    80201.6 secs

     Computing kpt #:   217  of   251
     total cpu time spent up to now is    80563.6 secs

     Computing kpt #:   218  of   251
     total cpu time spent up to now is    80922.4 secs

     Computing kpt #:   219  of   251
     total cpu time spent up to now is    81308.0 secs

     Computing kpt #:   220  of   251
     total cpu time spent up to now is    81692.7 secs

     Computing kpt #:   221  of   251
     c_bands:  1 eigenvalues not converged
     total cpu time spent up to now is    82103.9 secs

     Computing kpt #:   222  of   251
     total cpu time spent up to now is    82487.9 secs

     Computing kpt #:   223  of   251
     total cpu time spent up to now is    82845.0 secs

     Computing kpt #:   224  of   251
     total cpu time spent up to now is    83200.7 secs

     Computing kpt #:   225  of   251
     total cpu time spent up to now is    83557.3 secs

     Computing kpt #:   226  of   251
     total cpu time spent up to now is    83909.4 secs

     Computing kpt #:   227  of   251
     total cpu time spent up to now is    84261.1 secs

     Computing kpt #:   228  of   251
     total cpu time spent up to now is    84615.1 secs

     Computing kpt #:   229  of   251
     total cpu time spent up to now is    84969.5 secs

     Computing kpt #:   230  of   251
     total cpu time spent up to now is    85320.5 secs

     Computing kpt #:   231  of   251
[...]
     9.9537  10.0204  10.2521  10.2763  10.5665  10.5890  10.7046  10.7503
    10.8152  10.8400  11.0183  11.0601  11.4742  11.4986  11.5927  11.6812
    11.7469  11.8406  12.0125  12.0721  12.5203  12.5848  13.1811  13.2016
    13.4092  13.5434  13.7204  13.8479  14.1904  14.2364  14.4622  14.5023
    14.7153  14.8075  14.8986  14.9892  15.2718  15.3281  15.3625  15.4838
    15.8283  15.8661  15.9819  15.9984  16.0610  16.1310  16.3437  16.4391
    16.4620  16.5010  16.5873  16.6193  16.6311  16.7900  16.9149  16.9289
    16.9836  16.9949  17.0778  17.1708  17.2707  17.3701  17.4063  17.4927
    17.5363  17.6075  17.6461  17.7052  17.7480  17.7592  17.8400  17.8688
    18.1663  18.2061  18.3931  18.4854  18.5180  18.5468  18.6916  18.7844

          k = 2.7818-1.6061 0.1473 ( 23494 PWs)   bands (ev):

   -74.3200 -74.2321 -69.6633 -69.5757 -43.5526 -43.4646 -43.1888 -43.1013
   -42.6372 -42.5492 -38.8312 -38.7438 -38.4441 -38.3566 -38.0803 -37.9928
   -16.8862 -16.8859 -16.8800 -16.8798 -16.8756 -16.8754 -16.8736 -16.8735
   -16.8490 -16.8487 -16.8410 -16.8409 -16.8270 -16.8268 -16.8192 -16.8191
   -13.9149 -13.9141 -13.9060 -13.9058 -13.9002 -13.9000 -13.8938 -13.8936
   -13.8845 -13.8842 -13.8829 -13.8823 -13.8782 -13.8781 -13.8629 -13.8626
   -13.8513 -13.8513 -13.8473 -13.8473 -13.8328 -13.8328 -13.8307 -13.8303
    -4.0086  -4.0026  -3.9096  -3.9051  -3.8802  -3.8785  -3.7625  -3.7571
    -3.1580  -3.1364  -3.0523  -3.0398  -3.0321  -3.0098  -2.9188  -2.8926
    -2.2923  -2.2782  -2.2448  -2.2339  -2.0864  -2.0785  -2.0221  -2.0128
     2.5261   2.5446   2.6244   2.6467   2.8777   2.9058   2.9912   3.0598
     3.2463   3.2648   3.5590   3.6036   3.6863   3.7475   3.8815   3.9241
     4.0491   4.0848   4.0995   4.1278   4.1430   4.2109   4.2554   4.2953
     4.3654   4.4048   4.5457   4.5959   4.6480   4.6756   4.7123   4.7957
     4.8237   4.8779   4.9248   4.9485   5.1825   5.2234   5.3807   5.4119
     5.5500   5.5823   5.8664   5.8934   5.9387   5.9591   6.0401   6.0707
     6.2494   6.2971   6.4123   6.4380   6.7719   6.8030   7.1230   7.1420
     7.2732   7.3295   8.2327   8.2709   8.4488   8.5011   8.6219   8.6943
     8.8016   8.8571   8.9088   8.9178   9.0660   9.1046   9.2120   9.2652
     9.3020   9.3496   9.4259   9.4785   9.6009   9.6889   9.8229   9.8427
     9.9563  10.0134  10.2358  10.2622  10.5609  10.5800  10.6861  10.7325
    10.8219  10.8458  11.0357  11.0712  11.4823  11.5088  11.5824  11.6740
    11.7250  11.8215  12.0061  12.0606  12.5240  12.5898  13.1751  13.1970
    13.4196  13.5489  13.7111  13.8366  14.2077  14.2500  14.4670  14.5075
    14.7082  14.7979  14.8961  14.9766  15.3381  15.3915  15.4187  15.5439
    15.9167  15.9384  16.0661  16.1098  16.1296  16.1981  16.3570  16.4886
    16.5087  16.5598  16.6582  16.6765  16.7376  16.8615  16.9751  17.0022
    17.0311  17.0714  17.1383  17.2782  17.3944  17.4848  17.5323  17.6055
    17.6505  17.7104  17.7324  17.7841  17.8036  17.8438  17.8962  17.9244
    18.1711  18.2333  18.4354  18.4912  18.5199  18.6016  18.6695  18.7939

          k = 2.8450-1.6426 0.1506 ( 23495 PWs)   bands (ev):

   -74.3200 -74.2321 -69.6633 -69.5757 -43.5526 -43.4646 -43.1888 -43.1013
   -42.6372 -42.5492 -38.8312 -38.7438 -38.4441 -38.3566 -38.0803 -37.9928
   -16.8862 -16.8859 -16.8799 -16.8798 -16.8756 -16.8754 -16.8736 -16.8735
   -16.8490 -16.8487 -16.8410 -16.8409 -16.8270 -16.8268 -16.8191 -16.8191
   -13.9148 -13.9142 -13.9061 -13.9058 -13.9003 -13.9001 -13.8937 -13.8936
   -13.8843 -13.8841 -13.8829 -13.8824 -13.8781 -13.8780 -13.8629 -13.8627
   -13.8513 -13.8512 -13.8473 -13.8473 -13.8328 -13.8327 -13.8307 -13.8303
    -3.9632  -3.9570  -3.8695  -3.8632  -3.8436  -3.8385  -3.7317  -3.7222
    -3.1664  -3.1450  -3.0691  -3.0551  -3.0347  -3.0232  -2.9393  -2.9111
    -2.3061  -2.3020  -2.2629  -2.2569  -2.1086  -2.0995  -2.0451  -2.0334
     2.5037   2.5244   2.6101   2.6332   2.8575   2.8839   2.9824   3.0432
     3.2471   3.2717   3.5531   3.5974   3.6820   3.7451   3.8887   3.9289
     4.0448   4.0756   4.0913   4.1238   4.1401   4.2113   4.2395   4.2736
     4.3663   4.4105   4.5373   4.5917   4.6516   4.6851   4.6965   4.7894
     4.8094   4.8658   4.9137   4.9277   5.1460   5.1814   5.3756   5.4019
     5.5343   5.5658   5.8671   5.8919   5.9229   5.9466   6.0416   6.0724
     6.2416   6.2900   6.4215   6.4461   6.7544   6.7833   7.1221   7.1410
     7.2685   7.3254   8.2289   8.2655   8.4402   8.4889   8.6170   8.6897
     8.8030   8.8495   8.9031   8.9153   9.0591   9.0988   9.2089   9.2587
     9.3023   9.3548   9.4252   9.4770   9.6088   9.6991   9.8131   9.8406
     9.9642  10.0098  10.2152  10.2422  10.5546  10.5718  10.6717  10.7187
    10.8267  10.8499  11.0524  11.0829  11.4904  11.5209  11.5729  11.6663
    11.7074  11.8025  12.0004  12.0508  12.5272  12.5944  13.1685  13.1921
    13.4318  13.5534  13.7031  13.8225  14.2237  14.2624  14.4643  14.5117
    14.7049  14.7847  14.8928  14.9693  15.3943  15.4473  15.4760  15.5999
    15.9825  16.0060  16.1102  16.2136  16.2304  16.2654  16.3567  16.4760
    16.5599  16.6105  16.7163  16.7418  16.8581  16.9179  17.0092  17.0736
    17.0994  17.1635  17.2126  17.3964  17.5147  17.5989  17.6538  17.7110
    17.7480  17.7773  17.8079  17.8449  17.8982  17.9091  17.9630  18.0156
    18.1681  18.2548  18.3807  18.4740  18.5538  18.6016  18.7028  18.7536

          k = 2.9083-1.6791 0.1540 ( 23499 PWs)   bands (ev):

   -74.3200 -74.2321 -69.6633 -69.5757 -43.5526 -43.4646 -43.1888 -43.1013
   -42.6372 -42.5492 -38.8312 -38.7438 -38.4441 -38.3566 -38.0803 -37.9928
   -16.8862 -16.8859 -16.8799 -16.8798 -16.8755 -16.8754 -16.8736 -16.8735
   -16.8490 -16.8487 -16.8410 -16.8409 -16.8270 -16.8268 -16.8191 -16.8191
   -13.9148 -13.9143 -13.9061 -13.9059 -13.9003 -13.9002 -13.8937 -13.8936
   -13.8842 -13.8840 -13.8830 -13.8826 -13.8780 -13.8779 -13.8629 -13.8627
   -13.8513 -13.8512 -13.8473 -13.8472 -13.8327 -13.8327 -13.8306 -13.8303
    -3.9222  -3.9149  -3.8374  -3.8283  -3.8083  -3.8004  -3.7061  -3.6929
    -3.1751  -3.1533  -3.0930  -3.0753  -3.0381  -3.0260  -2.9599  -2.9294
    -2.3218  -2.3165  -2.2812  -2.2718  -2.1275  -2.1161  -2.0640  -2.0504
     2.4846   2.5074   2.6001   2.6215   2.8405   2.8652   2.9754   3.0288
     3.2494   3.2796   3.5474   3.5915   3.6783   3.7432   3.8991   3.9364
     4.0392   4.0660   4.0831   4.1177   4.1396   4.2060   4.2264   4.2533
     4.3673   4.4162   4.5313   4.5890   4.6600   4.6835   4.6975   4.7767
     4.8078   4.8568   4.9074   4.9122   5.1061   5.1388   5.3740   5.3978
     5.5192   5.5501   5.8676   5.8897   5.9092   5.9375   6.0441   6.0748
     6.2355   6.2843   6.4309   6.4541   6.7390   6.7651   7.1215   7.1400
     7.2644   7.3219   8.2267   8.2610   8.4329   8.4764   8.6128   8.6854
     8.8049   8.8416   8.8978   8.9144   9.0541   9.0953   9.2065   9.2501
     9.3047   9.3611   9.4242   9.4755   9.6188   9.7086   9.8031   9.8379
     9.9769  10.0107  10.1913  10.2172  10.5491  10.5645  10.6613  10.7085
    10.8298  10.8527  11.0673  11.0940  11.4970  11.5340  11.5655  11.6578
    11.6951  11.7838  11.9956  12.0427  12.5300  12.5984  13.1619  13.1872
    13.4459  13.5549  13.6984  13.8062  14.2381  14.2735  14.4561  14.5149
    14.7053  14.7705  14.8898  14.9649  15.4402  15.4953  15.5328  15.6508
    16.0232  16.0493  16.1550  16.2876  16.3242  16.3432  16.3658  16.4567
    16.6000  16.6483  16.7672  16.7965  16.9524  16.9763  17.0579  17.1089
    17.1609  17.2632  17.3170  17.5185  17.6278  17.7121  17.7517  17.7888
    17.8227  17.8362  17.8742  17.9324  17.9659  18.0030  18.0380  18.1008
    18.1720  18.2697  18.3141  18.4217  18.5300  18.5764  18.6726  18.7527

          k = 2.9715-1.7156 0.1573 ( 23496 PWs)   bands (ev):

   -74.3200 -74.2321 -69.6633 -69.5757 -43.5526 -43.4646 -43.1888 -43.1013
   -42.6372 -42.5492 -38.8312 -38.7438 -38.4441 -38.3566 -38.0803 -37.9928
   -16.8861 -16.8860 -16.8799 -16.8798 -16.8755 -16.8754 -16.8735 -16.8735
   -16.8489 -16.8487 -16.8410 -16.8409 -16.8270 -16.8268 -16.8191 -16.8191
   -13.9148 -13.9144 -13.9061 -13.9059 -13.9003 -13.9002 -13.8936 -13.8936
   -13.8841 -13.8839 -13.8830 -13.8827 -13.8780 -13.8779 -13.8629 -13.8627
   -13.8512 -13.8511 -13.8473 -13.8472 -13.8327 -13.8326 -13.8305 -13.8303
    -3.8865  -3.8778  -3.8139  -3.8026  -3.7752  -3.7653  -3.6862  -3.6707
    -3.1830  -3.1601  -3.1155  -3.0967  -3.0417  -3.0266  -2.9792  -2.9460
    -2.3352  -2.3265  -2.2948  -2.2833  -2.1414  -2.1297  -2.0779  -2.0645
     2.4694   2.4937   2.5939   2.6115   2.8270   2.8500   2.9702   3.0169
     3.2522   3.2872   3.5424   3.5862   3.6753   3.7418   3.9116   3.9451
     4.0332   4.0566   4.0763   4.1095   4.1402   4.1941   4.2145   4.2421
     4.3676   4.4207   4.5280   4.5870   4.6667   4.6804   4.7071   4.7628
     4.8115   4.8524   4.8979   4.9125   5.0660   5.0963   5.3754   5.3968
     5.5056   5.5360   5.8679   5.8871   5.8985   5.9316   6.0466   6.0771
     6.2308   6.2800   6.4398   6.4612   6.7265   6.7492   7.1211   7.1392
     7.2610   7.3191   8.2258   8.2573   8.4276   8.4644   8.6095   8.6818
     8.8072   8.8341   8.8935   8.9141   9.0509   9.0936   9.2055   9.2407
     9.3075   9.3676   9.4229   9.4741   9.6303   9.7148   9.7961   9.8334
     9.9932  10.0168  10.1658  10.1889  10.5452  10.5582  10.6542  10.7012
    10.8317  10.8546  11.0795  11.1038  11.5013  11.5447  11.5635  11.6477
    11.6896  11.7657  11.9916  12.0363  12.5322  12.6018  13.1560  13.1829
    13.4615  13.5517  13.6990  13.7883  14.2505  14.2828  14.4456  14.5166
    14.7085  14.7572  14.8876  14.9621  15.4767  15.5322  15.5893  15.6935
    16.0467  16.0594  16.2029  16.3127  16.3550  16.4157  16.4473  16.4645
    16.6301  16.6773  16.8055  16.8333  16.9901  17.0334  17.1114  17.1686
    17.1877  17.3776  17.4322  17.6355  17.7274  17.7974  17.8078  17.8354
    17.8927  17.9228  17.9387  18.0119  18.0432  18.0792  18.1172  18.1361
    18.2193  18.2347  18.3007  18.3766  18.4548  18.5306  18.5875  18.7234

          k = 3.0347-1.7521 0.1607 ( 23500 PWs)   bands (ev):

   -74.3200 -74.2321 -69.6633 -69.5757 -43.5526 -43.4646 -43.1888 -43.1013
   -42.6372 -42.5492 -38.8312 -38.7438 -38.4441 -38.3566 -38.0803 -37.9928
   -16.8861 -16.8860 -16.8799 -16.8798 -16.8754 -16.8754 -16.8735 -16.8735
   -16.8489 -16.8487 -16.8410 -16.8409 -16.8270 -16.8268 -16.8191 -16.8190
   -13.9148 -13.9145 -13.9061 -13.9060 -13.9003 -13.9002 -13.8936 -13.8936
   -13.8840 -13.8839 -13.8830 -13.8827 -13.8779 -13.8779 -13.8629 -13.8628
   -13.8512 -13.8511 -13.8473 -13.8472 -13.8326 -13.8326 -13.8305 -13.8303
    -3.8575  -3.8479  -3.7980  -3.7864  -3.7471  -3.7366  -3.6720  -3.6569
    -3.1889  -3.1642  -3.1344  -3.1157  -3.0450  -3.0265  -2.9957  -2.9593
    -2.3435  -2.3350  -2.3029  -2.2928  -2.1501  -2.1404  -2.0865  -2.0757
     2.4584   2.4838   2.5908   2.6034   2.8174   2.8388   2.9666   3.0080
     3.2550   3.2935   3.5384   3.5822   3.6733   3.7408   3.9243   3.9529
     4.0283   4.0485   4.0706   4.1016   4.1403   4.1802   4.2041   4.2391
     4.3674   4.4237   4.5268   4.5855   4.6669   4.6856   4.7154   4.7511
     4.8151   4.8494   4.8988   4.9212   5.0284   5.0556   5.3787   5.3971
     5.4948   5.5243   5.8677   5.8847   5.8908   5.9283   6.0487   6.0790
     6.2275   6.2770   6.4475   6.4669   6.7174   6.7363   7.1208   7.1385
     7.2585   7.3170   8.2258   8.2543   8.4247   8.4539   8.6070   8.6790
     8.8098   8.8273   8.8905   8.9139   9.0489   9.0929   9.2063   9.2315
     9.3099   9.3732   9.4214   9.4731   9.6423   9.7156   9.7949   9.8269
    10.0115  10.0281  10.1409  10.1596  10.5432  10.5529  10.6498  10.6963
    10.8329  10.8557  11.0886  11.1113  11.5031  11.5468  11.5724  11.6358
    11.6909  11.7486  11.9887  12.0318  12.5338  12.6044  13.1514  13.1794
    13.4783  13.5433  13.7056  13.7696  14.2602  14.2902  14.4356  14.5172
    14.7133  14.7456  14.8861  14.9604  15.5037  15.5582  15.6425  15.7226
    16.0492  16.0645  16.2309  16.2988  16.3920  16.4589  16.5066  16.5280
    16.6551  16.7046  16.8267  16.8503  17.0139  17.0705  17.1184  17.1780
    17.2979  17.4885  17.5409  17.7266  17.7748  17.8243  17.8503  17.9217
    17.9532  17.9834  18.0085  18.0673  18.0962  18.1256  18.1475  18.1950
    18.2233  18.2560  18.3257  18.3482  18.3952  18.4654  18.5105  18.6565

          k = 3.0979-1.7886 0.1640 ( 23510 PWs)   bands (ev):

   -74.3200 -74.2321 -69.6633 -69.5757 -43.5526 -43.4646 -43.1888 -43.1013
   -42.6372 -42.5492 -38.8312 -38.7439 -38.4441 -38.3566 -38.0803 -37.9928
   -16.8861 -16.8860 -16.8798 -16.8798 -16.8754 -16.8754 -16.8735 -16.8735
   -16.8489 -16.8488 -16.8410 -16.8409 -16.8270 -16.8269 -16.8191 -16.8190
   -13.9147 -13.9146 -13.9061 -13.9060 -13.9003 -13.9003 -13.8936 -13.8936
   -13.8840 -13.8839 -13.8829 -13.8828 -13.8779 -13.8779 -13.8629 -13.8628
   -13.8512 -13.8511 -13.8473 -13.8472 -13.8326 -13.8326 -13.8305 -13.8304
    -3.8374  -3.8286  -3.7884  -3.7792  -3.7268  -3.7183  -3.6622  -3.6518
    -3.1922  -3.1649  -3.1479  -3.1294  -3.0474  -3.0254  -3.0079  -2.9679
    -2.3471  -2.3415  -2.3060  -2.3001  -2.1539  -2.1481  -2.0901  -2.0839
     2.4518   2.4777   2.5905   2.5971   2.8116   2.8319   2.9646   3.0024
     3.2569   3.2976   3.5358   3.5796   3.6721   3.7403   3.9349   3.9577
     4.0252   4.0430   4.0661   4.0963   4.1394   4.1697   4.1982   4.2386
     4.3671   4.4254   4.5267   4.5843   4.6663   4.6906   4.7218   4.7424
     4.8193   4.8429   4.9133   4.9337   4.9984   5.0191   5.3824   5.3971
     5.4877   5.5164   5.8673   5.8832   5.8862   5.9266   6.0500   6.0802
     6.2256   6.2752   6.4527   6.4704   6.7120   6.7277   7.1207   7.1380
     7.2569   7.3157   8.2261   8.2522   8.4238   8.4462   8.6055   8.6773
     8.8130   8.8216   8.8887   8.9139   9.0479   9.0927   9.2089   9.2235
     9.3114   9.3771   9.4202   9.4724   9.6526   9.7121   9.7994   9.8189
    10.0279  10.0425  10.1206  10.1335  10.5428  10.5491  10.6474  10.6936
    10.8335  10.8564  11.0941  11.1162  11.5034  11.5455  11.5857  11.6233
    11.6969  11.7338  11.9870  12.0290  12.5348  12.6060  13.1484  13.1772
    13.4952  13.5310  13.7174  13.7509  14.2665  14.2949  14.4285  14.5171
    14.7192  14.7361  14.8851  14.9594  15.5205  15.5737  15.6878  15.7323
    16.0430  16.0691  16.2435  16.2764  16.4354  16.4790  16.5428  16.5701
    16.6881  16.7291  16.8240  16.8580  17.0301  17.0934  17.1160  17.1680
    17.4187  17.5625  17.6218  17.7441  17.7817  17.8669  17.9015  17.9403
    18.0086  18.0309  18.0552  18.0909  18.1252  18.1380  18.1718  18.2188
    18.2616  18.2816  18.3283  18.3487  18.3741  18.4312  18.4657  18.5837

          k = 3.1612-1.8251 0.1674 ( 23516 PWs)   bands (ev):

   -74.3200 -74.2321 -69.6633 -69.5757 -43.5526 -43.4646 -43.1888 -43.1013
   -42.6372 -42.5492 -38.8312 -38.7439 -38.4441 -38.3566 -38.0803 -37.9928
   -16.8861 -16.8861 -16.8799 -16.8798 -16.8754 -16.8754 -16.8736 -16.8735
   -16.8489 -16.8488 -16.8410 -16.8409 -16.8269 -16.8269 -16.8191 -16.8191
   -13.9147 -13.9147 -13.9061 -13.9060 -13.9003 -13.9003 -13.8936 -13.8936
   -13.8840 -13.8840 -13.8829 -13.8829 -13.8779 -13.8778 -13.8629 -13.8628
   -13.8512 -13.8511 -13.8473 -13.8472 -13.8326 -13.8326 -13.8304 -13.8304
    -3.8295  -3.8223  -3.7842  -3.7784  -3.7185  -3.7128  -3.6568  -3.6527
    -3.1931  -3.1641  -3.1533  -3.1347  -3.0482  -3.0241  -3.0131  -2.9709
    -2.3475  -2.3446  -2.3057  -2.3039  -2.1541  -2.1517  -2.0901  -2.0878
     2.4496   2.4757   2.5925   2.5929   2.8097   2.8296   2.9640   3.0004
     3.2576   3.2991   3.5349   3.5787   3.6717   3.7402   3.9394   3.9590
     4.0243   4.0410   4.0643   4.0945   4.1386   4.1662   4.1964   4.2386
     4.3669   4.4259   4.5267   4.5839   4.6662   4.6923   4.7250   4.7383
     4.8225   4.8384   4.9271   4.9375   4.9910   4.9963   5.3841   5.3969
     5.4853   5.5136   5.8670   5.8827   5.8847   5.9261   6.0504   6.0806
     6.2250   6.2746   6.4546   6.4716   6.7104   6.7245   7.1207   7.1378
     7.2564   7.3152   8.2264   8.2515   8.4238   8.4433   8.6050   8.6767
     8.8163   8.8174   8.8882   8.9138   9.0476   9.0927   9.2114   9.2190
     9.3120   9.3785   9.4197   9.4722   9.6569   9.7096   9.8046   9.8129
    10.0353  10.0507  10.1125  10.1206  10.5430  10.5474  10.6466  10.6927
    10.8337  10.8566  11.0960  11.1178  11.5034  11.5449  11.5939  11.6157
    11.7015  11.7263  11.9864  12.0281  12.5351  12.6066  13.1473  13.1764
    13.5070  13.5205  13.7316  13.7344  14.2686  14.2966  14.4259  14.5170
    14.7239  14.7303  14.8848  14.9590  15.5263  15.5789  15.7189  15.7205
    16.0405  16.0702  16.2515  16.2625  16.4617  16.4773  16.5595  16.5746
    16.7230  16.7266  16.8167  16.8602  17.0372  17.0937  17.1224  17.1605
    17.5139  17.5296  17.6839  17.7063  17.8314  17.8537  17.9167  17.9333
    18.0353  18.0608  18.0712  18.1045  18.1363  18.1444  18.1804  18.1953
    18.2718  18.3041  18.3395  18.3547  18.3715  18.3980  18.5053  18.5192

     Writing all to output data dir ./tmp/MnBi2Te4.save/
 
     init_run     :     42.47s CPU     44.31s WALL (       1 calls)
     electrons    :  90700.90s CPU  93295.64s WALL (       1 calls)

     Called by init_run:
     wfcinit      :     39.43s CPU     40.95s WALL (       1 calls)
     wfcinit:atom :      0.11s CPU      0.46s WALL (     251 calls)
     wfcinit:wfcr :   2890.52s CPU   2972.31s WALL (     251 calls)
     potinit      :      1.58s CPU      1.73s WALL (       1 calls)
     hinit0       :      0.53s CPU      0.62s WALL (       1 calls)

     Called by electrons:
     c_bands      :  90700.90s CPU  93295.59s WALL (       1 calls)
     v_of_rho     :      0.65s CPU      0.75s WALL (       1 calls)
     v_h          :      0.02s CPU      0.02s WALL (       1 calls)
     v_xc         :      0.63s CPU      0.73s WALL (       1 calls)
     newd         :      0.82s CPU      0.86s WALL (       1 calls)
     PAW_pot      :      0.79s CPU      0.82s WALL (       1 calls)

     Called by c_bands:
     init_us_2    :      1.16s CPU      1.21s WALL (     502 calls)
     init_us_2:cp :      1.16s CPU      1.21s WALL (     502 calls)
     cegterg      :  87795.27s CPU  90304.72s WALL (    1049 calls)

     Called by sum_band:

     Called by *egterg:
     cdiaghg      :    959.96s CPU    992.11s WALL (   18431 calls)
     cegterg:over :    491.29s CPU    512.86s WALL (   18180 calls)
     cegterg:upda :    347.19s CPU    358.14s WALL (   18180 calls)
     cegterg:last :    860.47s CPU    881.04s WALL (    7712 calls)
     cdiaghg:chol :     65.28s CPU     66.46s WALL (   18431 calls)
     cdiaghg:inve :     19.95s CPU     20.14s WALL (   18431 calls)
     cdiaghg:para :    195.95s CPU    211.79s WALL (   36862 calls)
     h_psi        :  87568.74s CPU  90064.33s WALL (   19480 calls)
     s_psi        :    362.78s CPU    365.53s WALL (   19731 calls)
     g_psi        :      8.20s CPU      8.36s WALL (   18180 calls)

     Called by h_psi:
     h_psi:calbec :    353.77s CPU    381.09s WALL (   19480 calls)
     vloc_psi     :  86634.51s CPU  89090.46s WALL (   19480 calls)
     add_vuspsi   :    324.15s CPU    330.46s WALL (   19480 calls)
     vhpsi        :    237.09s CPU    241.39s WALL (   19480 calls)

     General routines
     calbec       :    363.62s CPU    391.57s WALL (   19731 calls)
     fft          :      0.36s CPU      0.39s WALL (      27 calls)
     fftw         :  50329.64s CPU  52428.32s WALL ( 7335376 calls)
     davcio       :      0.19s CPU      3.95s WALL (    1004 calls)
 
     Parallel routines

     Hubbard U routines
     vhpsi        :    237.09s CPU    241.39s WALL (   19480 calls)

     PAW routines
     PAW_pot      :      0.79s CPU      0.82s WALL (       1 calls)
 
     PWSCF        :   1d 1h13m CPU   1d 1h57m WALL

 
   This run was terminated on:  21:42:35  24Sep2025            

=------------------------------------------------------------------------------=
   JOB DONE.
=------------------------------------------------------------------------------=
