
     Program PWSCF v.7.2 starts on 23Sep2025 at 13: 5:28 

     This program is part of the open-source Quantum ESPRESSO suite
     for quantum simulation of materials; please cite
         "P. Giannozzi et al., J. Phys.:Condens. Matter 21 395502 (2009);
         "P. Giannozzi et al., J. Phys.:Condens. Matter 29 465901 (2017);
         "P. Giannozzi et al., J. Chem. Phys. 152 154105 (2020);
          URL http://www.quantum-espresso.org", 
     in publications or presentations arising from this work. More details at
     http://www.quantum-espresso.org/quote

     Parallel version (MPI), running on    32 processors

     MPI processes distributed on     1 nodes
     114005 MiB available memory on the printing compute node when the environment starts
 
     Reading input from MnBi2Te4.scf.in

     Current dimensions of program PWSCF are:
     Max number of different atomic species (ntypx) = 10
     Max number of k-points (npk) =  40000
     Max angular momentum in pseudopotentials (lmaxx) =  4
     file Mn.rel-pbe-spn-kjpaw_psl.0.3.1.UPF: wavefunction(s)  3P 3P 3D renormalized
     file Mn.rel-pbe-spn-kjpaw_psl.0.3.1.UPF: wavefunction(s)  3P 3P 3D renormalized
     file Bi.rel-pbe-dn-kjpaw_psl.1.0.0.UPF: wavefunction(s)  6P 6P 5D 5D renormalized
     file Te.rel-pbe-n-kjpaw_psl.1.0.0.UPF: wavefunction(s)  5S 5P 5P renormalized

     Fixed quantization axis for GGA:     0.000000    0.000000    1.000000
     Message from routine setup:
     using ibrav=0 with symmetry is DISCOURAGED, use correct ibrav instead
 
     R & G space division:  proc/nbgrp/npool/nimage =      32
     Subspace diagonalization in iterative solution of the eigenvalue problem:
     a serial algorithm will be used

 
     Parallelization info
     --------------------
     sticks:   dense  smooth     PW     G-vecs:    dense   smooth      PW
     Min         252     252     70                 5873     5873     871
     Max         253     253     71                 5875     5875     873
     Sum        8079    8079   2257               187971   187971   27897
 
     Using Slab Decomposition
 


     bravais-lattice index     =            0
     lattice parameter (alat)  =      51.7756  a.u.
     unit-cell volume          =    2994.5794 (a.u.)^3
     number of atoms/cell      =           14
     number of atomic types    =            4
     number of electrons       =       138.00
     number of Kohn-Sham states=          138
     kinetic-energy cutoff     =      60.0000  Ry
     charge density cutoff     =     240.0000  Ry
     scf convergence threshold =      3.0E-05
     mixing beta               =       0.7000
     number of iterations used =            8  plain     mixing
     Exchange-correlation= SLA  PW   PBX  PBC
                           (   1   4   3   4   0   0   0)
     Noncollinear calculation with spin-orbit

     Hubbard projectors: ortho-atomic
     Hubbard parameters of DFT+U (Liechtenstein formulation) in eV:
     U(Mn1-3d) =  1.0000
     U(Mn2-3d) =  1.0000
     DFT+U on averaged j=l+1/2,l-1/2 radial WFs

     Internal variables: lda_plus_u = T, lda_plus_u_kind = 1

     celldm(1)=  51.775642  celldm(2)=   0.000000  celldm(3)=   0.000000
     celldm(4)=   0.000000  celldm(5)=   0.000000  celldm(6)=   0.000000

     crystal axes: (cart. coord. in units of alat)
               a(1) = (   0.079085  -0.045660   0.995822 )  
               a(2) = (   0.000000   0.091319   0.995822 )  
               a(3) = (  -0.079085  -0.045660   0.995822 )  

     reciprocal axes: (cart. coord. in units 2 pi/alat)
               b(1) = (  6.322314 -3.650196  0.334731 )  
               b(2) = (  0.000000  7.300392  0.334734 )  
               b(3) = ( -6.322314 -3.650196  0.334731 )  


     PseudoPot. # 1 for Mn read from file:
     ./Mn.rel-pbe-spn-kjpaw_psl.0.3.1.UPF
     MD5 check sum: dfba1c7561257014502ac20495784078
     Pseudo is Projector augmented-wave + core cor, Zval = 15.0
     Generated using &quot;atomic&quot; code by A. Dal Corso  v.6.2.2
     Shape of augmentation charge: PSQ
     Using radial grid of 1187 points, 10 beta functions with: 
                l(1) =   0
                l(2) =   0
                l(3) =   1
                l(4) =   1
                l(5) =   1
                l(6) =   1
                l(7) =   2
                l(8) =   2
                l(9) =   2
               l(10) =   2
     Q(r) pseudized with 0 coefficients 


     PseudoPot. # 2 for Mn read from file:
     ./Mn.rel-pbe-spn-kjpaw_psl.0.3.1.UPF
     MD5 check sum: dfba1c7561257014502ac20495784078
     Pseudo is Projector augmented-wave + core cor, Zval = 15.0
     Generated using &quot;atomic&quot; code by A. Dal Corso  v.6.2.2
     Shape of augmentation charge: PSQ
     Using radial grid of 1187 points, 10 beta functions with: 
                l(1) =   0
                l(2) =   0
                l(3) =   1
                l(4) =   1
                l(5) =   1
                l(6) =   1
                l(7) =   2
                l(8) =   2
                l(9) =   2
               l(10) =   2
     Q(r) pseudized with 0 coefficients 


     PseudoPot. # 3 for Bi read from file:
     ./Bi.rel-pbe-dn-kjpaw_psl.1.0.0.UPF
     MD5 check sum: 8010b987e9fb97324c8de82fb26a3f7d
     Pseudo is Projector augmented-wave + core cor, Zval = 15.0
     Generated using &quot;atomic&quot; code by A. Dal Corso  v.6.2.2
     Shape of augmentation charge: PSQ
     Using radial grid of 1283 points, 10 beta functions with: 
                l(1) =   0
                l(2) =   0
                l(3) =   1
                l(4) =   1
                l(5) =   1
                l(6) =   1
                l(7) =   2
                l(8) =   2
                l(9) =   2
               l(10) =   2
     Q(r) pseudized with 0 coefficients 


     PseudoPot. # 4 for Te read from file:
     ./Te.rel-pbe-n-kjpaw_psl.1.0.0.UPF
     MD5 check sum: 8399411061dffbb19b40ade5049f5146
     Pseudo is Projector augmented-wave + core cor, Zval =  6.0
     Generated using &quot;atomic&quot; code by A. Dal Corso  v.6.3
     Shape of augmentation charge: PSQ
     Using radial grid of 1245 points, 10 beta functions with: 
                l(1) =   0
                l(2) =   0
                l(3) =   1
                l(4) =   1
                l(5) =   1
                l(6) =   1
                l(7) =   2
                l(8) =   2
                l(9) =   2
               l(10) =   2
     Q(r) pseudized with 0 coefficients 


     atomic species   valence    mass     pseudopotential
        Mn1           15.00    54.93800     Mn( 1.00)
        Mn2           15.00    54.93800     Mn( 1.00)
        Bi            15.00   208.98000     Bi( 1.00)
        Te             6.00   127.60300     Te( 1.00)

      4 Sym. Ops., with inversion, found


                                    s                        frac. trans.

      isym =  1     identity                                     

 Time Reversal            0
 cryst.   s( 1) = (     1          0          0      )
                  (     0          1          0      )
                  (     0          0          1      )

 cart.    s( 1) = (  1.0000000  0.0000000  0.0000000 )
                  (  0.0000000  1.0000000 -0.0000000 )
                  (  0.0000000  0.0000000  1.0000000 )


      isym =  2     180 deg rotation - cart. axis [1,0,0]        

 Time Reversal            1
 cryst.   s( 2) = (     0          0         -1      )
                  (     0         -1          0      )
                  (    -1          0          0      )

 cart.    s( 2) = (  1.0000000  0.0000000  0.0000000 )
                  (  0.0000000 -1.0000000  0.0000000 )
                  (  0.0000000  0.0000000 -1.0000000 )


      isym =  3     inversion                                    

 Time Reversal            0
 cryst.   s( 3) = (    -1          0          0      )
                  (     0         -1          0      )
                  (     0          0         -1      )

 cart.    s( 3) = ( -1.0000000  0.0000000  0.0000000 )
                  (  0.0000000 -1.0000000  0.0000000 )
                  (  0.0000000  0.0000000 -1.0000000 )


      isym =  4     inv. 180 deg rotation - cart. axis [1,0,0]   

 Time Reversal            1
 cryst.   s( 4) = (     0          0          1      )
                  (     0          1          0      )
                  (     1          0          0      )

 cart.    s( 4) = ( -1.0000000  0.0000000  0.0000000 )
                  (  0.0000000  1.0000000 -0.0000000 )
                  (  0.0000000  0.0000000  1.0000000 )


   Cartesian axes

     site n.     atom                  positions (alat units)
         1           Mn1 tau(   1) = (   0.0000000   0.0000000   0.0000000  )
         2           Mn2 tau(   2) = (   0.0000000  -0.0000005   1.4937325  )
         3           Bi  tau(   3) = (   0.0000000  -0.0000002   0.6346869  )
         4           Bi  tau(   4) = (   0.0000000  -0.0000007   2.1284194  )
         5           Bi  tau(   5) = (   0.0000000  -0.0000003   0.8590455  )
         6           Bi  tau(   6) = (   0.0000000  -0.0000008   2.3527780  )
         7           Te  tau(   7) = (   0.0000000  -0.0000001   0.1992042  )
         8           Te  tau(   8) = (   0.0000000  -0.0000006   1.6929366  )
         9           Te  tau(   9) = (   0.0000000  -0.0000004   1.2945283  )
        10           Te  tau(  10) = (   0.0000000  -0.0000009   2.7882608  )
        11           Te  tau(  11) = (   0.0000000  -0.0000001   0.4392470  )
        12           Te  tau(  12) = (   0.0000000  -0.0000006   1.9329794  )
        13           Te  tau(  13) = (   0.0000000  -0.0000004   1.0544855  )
        14           Te  tau(  14) = (   0.0000000  -0.0000009   2.5482179  )

     --------------------------------------------
     DFT-D3 Dispersion Correction (3-body terms):
     --------------------------------------------
       Reference C6 values for interpolation: 

         atom   Coordination number   C6
         Mn1        0.000          1605.50
         Mn1        1.641           479.11
         Mn1        9.885           227.69
         Mn2        0.000          1605.50
         Mn2        1.641           479.11
         Mn2        9.885           227.69
         Te         0.000           851.07
         Te         0.981           850.20
         Te         1.964           837.16
         Bi         0.000          1235.06
         Bi         0.982          1188.09
         Bi         1.966          1132.10
         Bi         2.950          1067.76

       Values used:

         atom   Coordination number  R0_AB[au]  C6      C8
         Mn1        3.848            3.351    479.11  48433.79
         Mn2        3.848            3.351    479.11  48433.79
         Bi         5.275            3.890   1067.76 147315.96
         Bi         5.275            3.890   1067.76 147315.96
         Bi         5.275            3.890   1067.76 147315.96
         Bi         5.275            3.890   1067.76 147315.96
         Te         3.328            3.676    837.16  84978.06
         Te         3.328            3.676    837.16  84978.06
         Te         3.328            3.676    837.16  84978.06
         Te         3.328            3.676    837.16  84978.06
         Te         4.238            3.676    837.16  84978.05
         Te         4.238            3.676    837.16  84978.05
         Te         4.238            3.676    837.16  84978.05
         Te         4.238            3.676    837.16  84978.05

         Molecular C6 ( Ry / a.u.^6 ) =    164642.77


   Crystallographic axes

     site n.     atom                  positions (cryst. coord.)
         1           Mn1 tau(   1) = (  0.0000000  0.0000000  0.0000000  )
         2           Mn2 tau(   2) = (  0.5000000  0.5000000  0.5000000  )
         3           Bi  tau(   3) = (  0.2124500  0.2124500  0.2124500  )
         4           Bi  tau(   4) = (  0.7124500  0.7124500  0.7124500  )
         5           Bi  tau(   5) = (  0.2875500  0.2875500  0.2875500  )
         6           Bi  tau(   6) = (  0.7875500  0.7875500  0.7875500  )
         7           Te  tau(   7) = (  0.0666800  0.0666800  0.0666800  )
         8           Te  tau(   8) = (  0.5666800  0.5666800  0.5666800  )
         9           Te  tau(   9) = (  0.4333200  0.4333200  0.4333200  )
        10           Te  tau(  10) = (  0.9333200  0.9333200  0.9333200  )
        11           Te  tau(  11) = (  0.1470300  0.1470300  0.1470300  )
        12           Te  tau(  12) = (  0.6470300  0.6470300  0.6470300  )
        13           Te  tau(  13) = (  0.3529700  0.3529700  0.3529700  )
        14           Te  tau(  14) = (  0.8529700  0.8529700  0.8529700  )

     number of k points=     6
                       cart. coord. in units 2pi/alat
        k(    1) = (   0.0000000   0.0000000   0.0000000), wk =   0.1250000
        k(    2) = (   3.1611569   1.8250979  -0.1673654), wk =   0.2500000
        k(    3) = (   0.0000000  -3.6501959  -0.1673672), wk =   0.1250000
        k(    4) = (   3.1611569  -1.8250979  -0.3347326), wk =   0.2500000
        k(    5) = (   0.0000000   3.6501959  -0.3347307), wk =   0.1250000
        k(    6) = (   0.0000000   0.0000000  -0.5020979), wk =   0.1250000

                       cryst. coord.
        k(    1) = (   0.0000000   0.0000000   0.0000000), wk =   0.1250000
        k(    2) = (   0.0000000  -0.0000000  -0.5000000), wk =   0.2500000
        k(    3) = (   0.0000000  -0.5000000   0.0000000), wk =   0.1250000
        k(    4) = (   0.0000000  -0.5000000  -0.5000000), wk =   0.2500000
        k(    5) = (  -0.5000000  -0.0000000  -0.5000000), wk =   0.1250000
        k(    6) = (  -0.5000000  -0.5000000  -0.5000000), wk =   0.1250000

     Dense  grid:   187971 G-vectors     FFT dimensions: ( 256, 256, 256)

     Dynamical RAM for                 wfc:       3.09 MB

     Dynamical RAM for     wfc (w. buffer):      21.64 MB

     Dynamical RAM for             U proj.:       0.99 MB

     Dynamical RAM for  U proj. (w. buff.):       6.90 MB

     Dynamical RAM for           str. fact:       0.36 MB

     Dynamical RAM for           local pot:       0.00 MB

     Dynamical RAM for          nlocal pot:       5.33 MB

     Dynamical RAM for                qrad:      13.03 MB

     Dynamical RAM for          rho,v,vnew:      49.08 MB

     Dynamical RAM for               rhoin:      16.36 MB

     Dynamical RAM for            rho*nmix:       5.74 MB

     Dynamical RAM for           G-vectors:       0.38 MB

     Dynamical RAM for          h,s,v(r/c):       3.49 MB

     Dynamical RAM for          <psi|beta>:       2.00 MB

     Dynamical RAM for                 psi:       6.18 MB

     Dynamical RAM for                hpsi:       6.18 MB

     Dynamical RAM for                spsi:       6.18 MB

     Dynamical RAM for      wfcinit/wfcrot:       5.07 MB

     Dynamical RAM for           addusdens:      55.66 MB

     Estimated static dynamical RAM per process >     145.52 MB

     Estimated max dynamical RAM per process >     206.92 MB

     Estimated total dynamical RAM >       6.47 GB

     Atomic positions and unit cell read from directory:
     ./tmp/MnBi2Te4.save/
     Message from routine qexsd_readschema :
     xml data file ./tmp/MnBi2Te4.save/data-file-schema.xml not found
     Nothing found: using input atomic positions and unit cell


     Check: negative core charge=   -0.000015
     Generating pointlists ...
     new r_m :   0.0448 (alat units)  2.3181 (a.u.) for type    1
     new r_m :   0.0448 (alat units)  2.3181 (a.u.) for type    2
     new r_m :   0.0456 (alat units)  2.3625 (a.u.) for type    3
     new r_m :   0.0448 (alat units)  2.3181 (a.u.) for type    4
     Cannot read rho : file not found

     Initial potential from superposition of free atoms

     starting charge     137.9938, renormalised to     138.0000
 --- in v_hubbard ---
Hub. E (dc, noflip, flip, total)    1.4700   1.4700  -0.0000   0.0000
 -------

     STARTING HUBBARD OCCUPATIONS:

     ================= HUBBARD OCCUPATIONS ================
     ------------------------ ATOM    1 ------------------------
     Tr[ns(  1)] (up, down, total) =   5.00000  0.00000  5.00000
     eigenvalues:
       0.000  0.000  0.000  0.000  0.000  1.000  1.000  1.000  1.000  1.000
     eigenvectors (columns):
       0.000  0.000  0.000  0.000  0.000  1.000  0.000  0.000  0.000  0.000
       0.000  0.000  0.000  0.000  0.000  0.000  1.000  0.000  0.000  0.000
       0.000  0.000  0.000  0.000  0.000  0.000  0.000  1.000  0.000  0.000
       0.000  0.000  0.000  0.000  0.000  0.000  0.000  0.000  1.000  0.000
       0.000  0.000  0.000  0.000  0.000  0.000  0.000  0.000  0.000  1.000
       1.000  0.000  0.000  0.000  0.000  0.000  0.000  0.000  0.000  0.000
       0.000  1.000  0.000  0.000  0.000  0.000  0.000  0.000  0.000  0.000
       0.000  0.000  1.000  0.000  0.000  0.000  0.000  0.000  0.000  0.000
       0.000  0.000  0.000  1.000  0.000  0.000  0.000  0.000  0.000  0.000
       0.000  0.000  0.000  0.000  1.000  0.000  0.000  0.000  0.000  0.000
     occupations, | n_(i1, i2)^(sigma1, sigma2) |:
       1.000  0.000  0.000  0.000  0.000  0.000  0.000  0.000  0.000  0.000
       0.000  1.000  0.000  0.000  0.000  0.000  0.000  0.000  0.000  0.000
       0.000  0.000  1.000  0.000  0.000  0.000  0.000  0.000  0.000  0.000
       0.000  0.000  0.000  1.000  0.000  0.000  0.000  0.000  0.000  0.000
       0.000  0.000  0.000  0.000  1.000  0.000  0.000  0.000  0.000  0.000
       0.000  0.000  0.000  0.000  0.000  0.000  0.000  0.000  0.000  0.000
       0.000  0.000  0.000  0.000  0.000  0.000  0.000  0.000  0.000  0.000
       0.000  0.000  0.000  0.000  0.000  0.000  0.000  0.000  0.000  0.000
       0.000  0.000  0.000  0.000  0.000  0.000  0.000  0.000  0.000  0.000
       0.000  0.000  0.000  0.000  0.000  0.000  0.000  0.000  0.000  0.000
     Atomic magnetic moment mx, my, mz =     0.000000    0.000000    5.000000
     ------------------------ ATOM    2 ------------------------
     Tr[ns(  2)] (up, down, total) =   0.00000  5.00000  5.00000
     eigenvalues:
      -0.000 -0.000 -0.000 -0.000 -0.000  1.000  1.000  1.000  1.000  1.000
     eigenvectors (columns):
       0.000  0.000  1.000  0.000  0.000  0.000  0.000  0.000  0.000  0.000
      -1.000  0.000  0.000  0.000  0.000  0.000  0.000 -0.000  0.000  0.000
       0.000  0.000  0.000  1.000  0.000  0.000  0.000  0.000  0.000  0.000
       0.000 -1.000  0.000  0.000  0.000  0.000  0.000  0.000  0.000  0.000
       0.000  0.000  0.000  0.000  1.000  0.000  0.000  0.000  0.000  0.000
       0.000  0.000 -0.000  0.000  0.000  0.000  0.000  0.000  0.000  1.000
       0.000  0.000  0.000  0.000  0.000  0.000  0.000 -1.000  0.000  0.000
       0.000  0.000  0.000 -0.000  0.000  0.000  1.000  0.000  0.000  0.000
       0.000  0.000  0.000  0.000  0.000  1.000  0.000  0.000  0.000  0.000
       0.000  0.000  0.000  0.000 -0.000  0.000  0.000  0.000  1.000  0.000
     occupations, | n_(i1, i2)^(sigma1, sigma2) |:
       0.000  0.000  0.000  0.000  0.000  0.000  0.000  0.000  0.000  0.000
       0.000  0.000  0.000  0.000  0.000  0.000  0.000  0.000  0.000  0.000
       0.000  0.000  0.000  0.000  0.000  0.000  0.000  0.000  0.000  0.000
       0.000  0.000  0.000  0.000  0.000  0.000  0.000  0.000  0.000  0.000
       0.000  0.000  0.000  0.000  0.000  0.000  0.000  0.000  0.000  0.000
       0.000  0.000  0.000  0.000  0.000  1.000  0.000  0.000  0.000  0.000
       0.000  0.000  0.000  0.000  0.000  0.000  1.000  0.000  0.000  0.000
       0.000  0.000  0.000  0.000  0.000  0.000  0.000  1.000  0.000  0.000
       0.000  0.000  0.000  0.000  0.000  0.000  0.000  0.000  1.000  0.000
       0.000  0.000  0.000  0.000  0.000  0.000  0.000  0.000  0.000  1.000
     Atomic magnetic moment mx, my, mz =     0.000000    0.000000   -5.000000

     Number of occupied Hubbard levels =   10.0000

 ==============================================================================
     atom number    1 relative position :    0.0000   0.0000   0.0000
     charge :    13.702625  (integrated on a sphere of radius 0.045)
     magnetization :          0.000000    0.000000    4.474670
     magnetization/charge:    0.000000    0.000000    0.326556
     polar coord.: r, theta, phi [deg] :     4.474670    0.000000  360.000000

 ==============================================================================

 ==============================================================================
     atom number    2 relative position :    0.0000  -0.0000   1.4937
     charge :    13.702625  (integrated on a sphere of radius 0.045)
     magnetization :          0.000000    0.000000   -4.474670
     magnetization/charge:    0.000000    0.000000   -0.326556
     polar coord.: r, theta, phi [deg] :     4.474670  180.000000  360.000000

 ==============================================================================

 ==============================================================================
     atom number    3 relative position :    0.0000  -0.0000   0.6347
     charge :    12.834981  (integrated on a sphere of radius 0.046)
     magnetization :          0.000000    0.000000   -0.000781
     magnetization/charge:    0.000000    0.000000   -0.000061
     polar coord.: r, theta, phi [deg] :     0.000781  180.000000  360.000000

 ==============================================================================

 ==============================================================================
     atom number    4 relative position :    0.0000  -0.0000   2.1284
     charge :    12.834981  (integrated on a sphere of radius 0.046)
     magnetization :         -0.000000    0.000000    0.000781
     magnetization/charge:   -0.000000    0.000000    0.000061
     polar coord.: r, theta, phi [deg] :     0.000781    0.000000  360.000000

 ==============================================================================

 ==============================================================================
     atom number    5 relative position :    0.0000  -0.0000   0.8590
     charge :    12.834981  (integrated on a sphere of radius 0.046)
     magnetization :         -0.000000    0.000000    0.000781
     magnetization/charge:   -0.000000    0.000000    0.000061
     polar coord.: r, theta, phi [deg] :     0.000781    0.000000  360.000000

 ==============================================================================

 ==============================================================================
     atom number    6 relative position :    0.0000  -0.0000   2.3528
     charge :    12.834981  (integrated on a sphere of radius 0.046)
     magnetization :          0.000000    0.000000   -0.000781
     magnetization/charge:    0.000000    0.000000   -0.000061
     polar coord.: r, theta, phi [deg] :     0.000781  180.000000  360.000000

 ==============================================================================

 ==============================================================================
     atom number    7 relative position :    0.0000  -0.0000   0.1992
     charge :     3.754753  (integrated on a sphere of radius 0.045)
     magnetization :         -0.000000    0.000000    0.000018
     magnetization/charge:   -0.000000    0.000000    0.000005
     polar coord.: r, theta, phi [deg] :     0.000018    0.000000  360.000000

 ==============================================================================

 ==============================================================================
     atom number    8 relative position :    0.0000  -0.0000   1.6929
     charge :     3.754753  (integrated on a sphere of radius 0.045)
     magnetization :          0.000000    0.000000   -0.000018
     magnetization/charge:    0.000000    0.000000   -0.000005
     polar coord.: r, theta, phi [deg] :     0.000018  180.000000  360.000000

 ==============================================================================

 ==============================================================================
     atom number    9 relative position :    0.0000  -0.0000   1.2945
     charge :     3.754753  (integrated on a sphere of radius 0.045)
     magnetization :          0.000000    0.000000   -0.000018
     magnetization/charge:    0.000000    0.000000   -0.000005
     polar coord.: r, theta, phi [deg] :     0.000018  180.000000  360.000000

 ==============================================================================

 ==============================================================================
     atom number   10 relative position :    0.0000  -0.0000   2.7883
     charge :     3.754753  (integrated on a sphere of radius 0.045)
     magnetization :         -0.000000    0.000000    0.000018
     magnetization/charge:   -0.000000    0.000000    0.000005
     polar coord.: r, theta, phi [deg] :     0.000018    0.000000  360.000000

 ==============================================================================

 ==============================================================================
     atom number   11 relative position :    0.0000  -0.0000   0.4392
     charge :     3.788446  (integrated on a sphere of radius 0.045)
     magnetization :          0.000000    0.000000   -0.035317
     magnetization/charge:    0.000000    0.000000   -0.009322
     polar coord.: r, theta, phi [deg] :     0.035317  180.000000  360.000000

 ==============================================================================

 ==============================================================================
     atom number   12 relative position :    0.0000  -0.0000   1.9330
     charge :     3.788446  (integrated on a sphere of radius 0.045)
     magnetization :         -0.000000    0.000000    0.035317
     magnetization/charge:   -0.000000    0.000000    0.009322
     polar coord.: r, theta, phi [deg] :     0.035317    0.000000  360.000000

 ==============================================================================

 ==============================================================================
     atom number   13 relative position :    0.0000  -0.0000   1.0545
     charge :     3.788446  (integrated on a sphere of radius 0.045)
     magnetization :         -0.000000    0.000000    0.035317
     magnetization/charge:   -0.000000    0.000000    0.009322
     polar coord.: r, theta, phi [deg] :     0.035317    0.000000  360.000000

 ==============================================================================

 ==============================================================================
     atom number   14 relative position :    0.0000  -0.0000   2.5482
     charge :     3.788446  (integrated on a sphere of radius 0.045)
     magnetization :          0.000000    0.000000   -0.035317
     magnetization/charge:    0.000000    0.000000   -0.009322
     polar coord.: r, theta, phi [deg] :     0.035317  180.000000  360.000000

 ==============================================================================

     Atomic wfc used for Hubbard projectors are orthogonalized

     Message from routine qexsd_readschema :
     xml data file ./tmp/MnBi2Te4.save/data-file-schema.xml not found
     Cannot read wfcs: file not found
     Starting wfcs are  176 randomized atomic wfcs
     Checking if some PAW data can be deallocated... 
       PAW data deallocated on   29 nodes for type:  1
       PAW data deallocated on   29 nodes for type:  2
       PAW data deallocated on   22 nodes for type:  3
       PAW data deallocated on   16 nodes for type:  4

     total cpu time spent up to now is       58.9 secs

     Self-consistent Calculation

     iteration #  1     ecut=    60.00 Ry     beta= 0.70
     Davidson diagonalization with overlap

---- Real-time Memory Report at c_bands before calling an iterative solver
           318 MiB given to the printing process from OS
             0 MiB allocation reported by mallinfo(arena+hblkhd)
        106178 MiB available memory on the node where the printing process lives
------------------
     c_bands:  4 eigenvalues not converged
     c_bands:  4 eigenvalues not converged
     ethr =  1.00E-05,  avg # of iterations = 14.3

     ================= HUBBARD OCCUPATIONS ================
     ------------------------ ATOM    1 ------------------------
     Tr[ns(  1)] (up, down, total) =   4.97654  0.63137  5.60791
     eigenvalues:
       0.036  0.040  0.080  0.221  0.253  0.991  0.993  0.997  0.997  0.998
     eigenvectors (columns):
      -0.001 -0.001  0.005 -0.000 -0.007 -0.000  0.000  0.000 -0.002  1.000
       0.000 -0.000 -0.000 -0.000  0.000 -0.000 -0.000 -0.000 -0.000 -0.000
       0.001 -0.007 -0.001  0.003  0.000  0.531 -0.511 -0.467 -0.488 -0.000
       0.004  0.002  0.001  0.004 -0.001 -0.468  0.488 -0.530 -0.512 -0.001
      -0.000  0.000  0.000 -0.000  0.000  0.000  0.000 -0.000 -0.000 -0.000
      -0.000  0.000 -0.000 -0.000 -0.000 -0.000 -0.000 -0.000 -0.000 -0.000
      -0.391 -0.346  0.235 -0.553 -0.605  0.000  0.004  0.000 -0.004 -0.006
       0.000 -0.000  0.000  0.000 -0.000 -0.000 -0.000  0.000  0.000  0.000
       0.000  0.000 -0.000 -0.000  0.000 -0.000 -0.000  0.000  0.000  0.000
      -0.443 -0.404  0.563  0.491  0.288 -0.000  0.004 -0.000  0.003 -0.001
     occupations, | n_(i1, i2)^(sigma1, sigma2) |:
       0.998  0.000  0.000  0.000  0.000  0.000  0.005  0.004  0.001  0.001
       0.000  0.994  0.001  0.000  0.003  0.006  0.000  0.000  0.003  0.003
       0.000  0.001  0.994  0.003  0.000  0.006  0.000  0.001  0.003  0.003
       0.000  0.000  0.003  0.995  0.001  0.001  0.003  0.004  0.001  0.001
       0.000  0.003  0.000  0.001  0.995  0.001  0.003  0.003  0.000  0.001
       0.000  0.006  0.006  0.001  0.001  0.039  0.000  0.002  0.001  0.000
       0.005  0.000  0.000  0.003  0.003  0.000  0.175  0.041  0.013  0.082
       0.004  0.000  0.001  0.004  0.003  0.002  0.041  0.188  0.075  0.011
       0.001  0.003  0.003  0.001  0.000  0.001  0.013  0.075  0.116  0.005
       0.001  0.003  0.003  0.001  0.001  0.000  0.082  0.011  0.005  0.113
     Atomic magnetic moment mx, my, mz =     0.000000    0.000013    4.345163
     ------------------------ ATOM    2 ------------------------
     Tr[ns(  2)] (up, down, total) =   0.65698  4.97653  5.63351
     eigenvalues:
       0.033  0.039  0.097  0.221  0.268  0.991  0.993  0.997  0.997  0.998
     eigenvectors (columns):
       0.215  0.977 -0.005 -0.001 -0.001  0.006 -0.000 -0.007 -0.000  0.000
       0.000 -0.000  0.000  0.000 -0.000  0.000 -0.000  0.000 -0.000  0.000
      -0.442  0.097  0.254 -0.503 -0.691 -0.000 -0.004  0.000 -0.004  0.006
      -0.483  0.111  0.695  0.460  0.245  0.000 -0.004 -0.000  0.003  0.001
       0.000 -0.000  0.000 -0.000  0.000  0.000 -0.000 -0.000  0.000  0.000
      -0.000  0.000 -0.000 -0.000  0.000  0.000  0.000  0.000  0.000  0.000
       0.005  0.005 -0.000 -0.003  0.000 -0.531 -0.511  0.466  0.489 -0.001
      -0.000  0.000  0.000  0.000  0.000  0.000 -0.000 -0.000  0.000  0.000
       0.000 -0.000 -0.000  0.000  0.000 -0.000  0.000 -0.000  0.000 -0.000
      -0.004  0.002  0.000 -0.004 -0.000  0.468  0.487  0.530  0.512 -0.001
     occupations, | n_(i1, i2)^(sigma1, sigma2) |:
       0.039  0.001  0.001  0.000  0.001  0.000  0.006  0.006  0.001  0.001
       0.001  0.188  0.056  0.020  0.076  0.004  0.000  0.000  0.003  0.003
       0.001  0.056  0.197  0.072  0.019  0.004  0.000  0.000  0.003  0.003
       0.000  0.020  0.072  0.118  0.001  0.001  0.003  0.003  0.001  0.001
       0.001  0.076  0.019  0.001  0.116  0.001  0.003  0.003  0.001  0.001
       0.000  0.004  0.004  0.001  0.001  0.998  0.000  0.000  0.000  0.000
       0.006  0.000  0.000  0.003  0.003  0.000  0.994  0.001  0.000  0.003
       0.006  0.000  0.000  0.003  0.003  0.000  0.001  0.994  0.003  0.000
       0.001  0.003  0.003  0.001  0.001  0.000  0.000  0.003  0.995  0.001
       0.001  0.003  0.003  0.001  0.001  0.000  0.003  0.000  0.001  0.995
     Atomic magnetic moment mx, my, mz =    -0.000000    0.000069   -4.319554

     Number of occupied Hubbard levels =   11.2414
 --- in v_hubbard ---
Hub. E (dc, noflip, flip, total)    1.7713   1.8010  -0.0000   0.0297
 -------

 ==============================================================================
     atom number    1 relative position :    0.0000   0.0000   0.0000
     charge :    13.860044  (integrated on a sphere of radius 0.045)
     magnetization :         -0.000000    0.000101    4.366350
     magnetization/charge:   -0.000000    0.000007    0.315031
     polar coord.: r, theta, phi [deg] :     4.366350    0.001325   90.000000

 ==============================================================================

 ==============================================================================
     atom number    2 relative position :    0.0000  -0.0000   1.4937
     charge :    13.876192  (integrated on a sphere of radius 0.045)
     magnetization :          0.000000   -0.000025   -4.350895
     magnetization/charge:    0.000000   -0.000002   -0.313551
     polar coord.: r, theta, phi [deg] :     4.350895  179.999673  -90.000000

 ==============================================================================

 ==============================================================================
     atom number    3 relative position :    0.0000  -0.0000   0.6347
     charge :    12.521019  (integrated on a sphere of radius 0.046)
     magnetization :          0.000000   -0.002045   -0.003764
     magnetization/charge:    0.000000   -0.000163   -0.000301
     polar coord.: r, theta, phi [deg] :     0.004283  151.488211  -90.000000

 ==============================================================================

 ==============================================================================
     atom number    4 relative position :    0.0000  -0.0000   2.1284
     charge :    12.519409  (integrated on a sphere of radius 0.046)
     magnetization :          0.000000    0.000850    0.002018
     magnetization/charge:    0.000000    0.000068    0.000161
     polar coord.: r, theta, phi [deg] :     0.002190   22.842227   90.000000

 ==============================================================================

 ==============================================================================
     atom number    5 relative position :    0.0000  -0.0000   0.8590
     charge :    12.519409  (integrated on a sphere of radius 0.046)
     magnetization :         -0.000000    0.000850    0.002018
     magnetization/charge:   -0.000000    0.000068    0.000161
     polar coord.: r, theta, phi [deg] :     0.002190   22.842227   90.000000

 ==============================================================================

 ==============================================================================
     atom number    6 relative position :    0.0000  -0.0000   2.3528
     charge :    12.521019  (integrated on a sphere of radius 0.046)
     magnetization :          0.000000   -0.002045   -0.003764
     magnetization/charge:    0.000000   -0.000163   -0.000301
     polar coord.: r, theta, phi [deg] :     0.004283  151.488211  -90.000000

 ==============================================================================

 ==============================================================================
     atom number    7 relative position :    0.0000  -0.0000   0.1992
     charge :     3.856371  (integrated on a sphere of radius 0.045)
     magnetization :          0.000000   -0.003462    0.010458
     magnetization/charge:    0.000000   -0.000898    0.002712
     polar coord.: r, theta, phi [deg] :     0.011016   18.314686  -90.000000

 ==============================================================================

 ==============================================================================
     atom number    8 relative position :    0.0000  -0.0000   1.6929
     charge :     3.856860  (integrated on a sphere of radius 0.045)
     magnetization :         -0.000000   -0.002769   -0.014229
     magnetization/charge:   -0.000000   -0.000718   -0.003689
     polar coord.: r, theta, phi [deg] :     0.014496  168.986952  -90.000000

 ==============================================================================

 ==============================================================================
     atom number    9 relative position :    0.0000  -0.0000   1.2945
     charge :     3.856860  (integrated on a sphere of radius 0.045)
     magnetization :          0.000000   -0.002769   -0.014229
     magnetization/charge:    0.000000   -0.000718   -0.003689
     polar coord.: r, theta, phi [deg] :     0.014496  168.986952  -90.000000

 ==============================================================================

 ==============================================================================
     atom number   10 relative position :    0.0000  -0.0000   2.7883
     charge :     3.856371  (integrated on a sphere of radius 0.045)
     magnetization :         -0.000000   -0.003462    0.010458
     magnetization/charge:   -0.000000   -0.000898    0.002712
     polar coord.: r, theta, phi [deg] :     0.011016   18.314686  -90.000000

 ==============================================================================

 ==============================================================================
     atom number   11 relative position :    0.0000  -0.0000   0.4392
     charge :     3.965642  (integrated on a sphere of radius 0.045)
     magnetization :         -0.000000   -0.000536   -0.063252
     magnetization/charge:   -0.000000   -0.000135   -0.015950
     polar coord.: r, theta, phi [deg] :     0.063254  179.514673  -90.000000

 ==============================================================================

 ==============================================================================
     atom number   12 relative position :    0.0000  -0.0000   1.9330
     charge :     3.965337  (integrated on a sphere of radius 0.045)
     magnetization :          0.000000   -0.000012    0.062417
     magnetization/charge:    0.000000   -0.000003    0.015741
     polar coord.: r, theta, phi [deg] :     0.062417    0.011010  -90.000000

 ==============================================================================

 ==============================================================================
     atom number   13 relative position :    0.0000  -0.0000   1.0545
     charge :     3.965337  (integrated on a sphere of radius 0.045)
     magnetization :          0.000000   -0.000012    0.062417
     magnetization/charge:    0.000000   -0.000003    0.015741
     polar coord.: r, theta, phi [deg] :     0.062417    0.011010  -90.000000

 ==============================================================================

 ==============================================================================
     atom number   14 relative position :    0.0000  -0.0000   2.5482
     charge :     3.965642  (integrated on a sphere of radius 0.045)
     magnetization :          0.000000   -0.000536   -0.063252
     magnetization/charge:    0.000000   -0.000135   -0.015950
     polar coord.: r, theta, phi [deg] :     0.063254  179.514673  -90.000000

 ==============================================================================

     total cpu time spent up to now is      420.6 secs

     total energy              =   -7139.83066861 Ry
     estimated scf accuracy    <       0.91698582 Ry

     total magnetization       =     0.00    -0.03    -0.00 Bohr mag/cell
     absolute magnetization    =     9.76 Bohr mag/cell

     iteration #  2     ecut=    60.00 Ry     beta= 0.70
     Davidson diagonalization with overlap

---- Real-time Memory Report at c_bands before calling an iterative solver
           441 MiB given to the printing process from OS
             0 MiB allocation reported by mallinfo(arena+hblkhd)
        102173 MiB available memory on the node where the printing process lives
------------------
     c_bands:  2 eigenvalues not converged
     c_bands:  1 eigenvalues not converged
     c_bands:  1 eigenvalues not converged
     ethr =  6.64E-04,  avg # of iterations = 17.8

     ================= HUBBARD OCCUPATIONS ================
     ------------------------ ATOM    1 ------------------------
     Tr[ns(  1)] (up, down, total) =   0.77741  0.07161  0.84903
     eigenvalues:
       0.005  0.005  0.006  0.020  0.034  0.047  0.067  0.086  0.277  0.301
     eigenvectors (columns):
      -0.007  0.007  0.000  0.012  0.157 -0.043 -0.259  0.951  0.002  0.044
       0.000  0.000  0.000 -0.000  0.000  0.000  0.000 -0.000  0.000 -0.000
       0.009 -0.004 -0.008 -0.034  0.001  0.520  0.270  0.116  0.683 -0.419
      -0.002 -0.003  0.007 -0.032  0.001  0.571  0.545  0.156 -0.423  0.415
      -0.000 -0.000 -0.000 -0.000  0.000  0.000  0.000 -0.000 -0.000  0.000
       0.000 -0.000 -0.000 -0.000  0.000  0.000  0.000 -0.000  0.000 -0.000
       0.420 -0.446  0.168 -0.578  0.506 -0.029  0.008 -0.069 -0.005  0.000
       0.000  0.000  0.000  0.000  0.000 -0.000 -0.000 -0.000  0.000 -0.000
       0.000  0.000  0.000 -0.000 -0.000  0.000  0.000  0.000 -0.000  0.000
       0.582 -0.472  0.181  0.412 -0.478  0.017 -0.023  0.076  0.001  0.009
     occupations, | n_(i1, i2)^(sigma1, sigma2) |:
       0.084  0.007  0.002  0.007  0.003  0.000  0.003  0.005  0.004  0.004
       0.007  0.208  0.022  0.016  0.109  0.002  0.000  0.001  0.001  0.001
       0.002  0.022  0.201  0.107  0.020  0.003  0.002  0.002  0.000  0.000
       0.007  0.016  0.107  0.139  0.023  0.002  0.000  0.001  0.001  0.001
       0.003  0.109  0.020  0.023  0.145  0.001  0.000  0.001  0.001  0.002
       0.000  0.002  0.003  0.002  0.001  0.006  0.000  0.000  0.000  0.000
       0.003  0.000  0.002  0.000  0.000  0.000  0.018  0.003  0.004  0.011
       0.005  0.001  0.002  0.001  0.001  0.000  0.003  0.018  0.011  0.004
       0.004  0.001  0.000  0.001  0.001  0.000  0.004  0.011  0.015  0.005
       0.004  0.001  0.000  0.001  0.002  0.000  0.011  0.004  0.005  0.015
     Atomic magnetic moment mx, my, mz =    -0.000000    0.006615    0.705803
     ------------------------ ATOM    2 ------------------------
     Tr[ns(  2)] (up, down, total) =   0.04668  0.26344  0.31012
     eigenvalues:
       0.004  0.004  0.005  0.015  0.016  0.019  0.020  0.024  0.058  0.145
     eigenvectors (columns):
      -0.032  0.056  0.995  0.001  0.001 -0.006  0.069 -0.004 -0.001  0.026
       0.000  0.000 -0.000 -0.000 -0.000 -0.000  0.000  0.000  0.000  0.000
      -0.324  0.477 -0.034 -0.530 -0.549 -0.247 -0.041  0.146  0.009 -0.010
      -0.478  0.657 -0.054  0.402  0.345  0.213  0.030 -0.085 -0.061  0.005
       0.000  0.000 -0.000  0.000  0.000  0.000 -0.000 -0.000 -0.000  0.000
       0.000  0.000  0.000 -0.000 -0.000 -0.000 -0.000 -0.000  0.000 -0.000
      -0.060  0.014 -0.021 -0.043  0.245 -0.382  0.426 -0.014  0.588 -0.510
       0.000 -0.000  0.000 -0.000 -0.000  0.000  0.000  0.000 -0.000 -0.000
       0.000 -0.000  0.000 -0.000 -0.000  0.000  0.000 -0.000  0.000  0.000
      -0.014  0.001 -0.047 -0.066  0.285 -0.571  0.441  0.004 -0.403  0.478
     occupations, | n_(i1, i2)^(sigma1, sigma2) |:
       0.005  0.000  0.000  0.000  0.000  0.000  0.001  0.001  0.002  0.002
       0.000  0.013  0.000  0.000  0.006  0.002  0.000  0.000  0.000  0.001
       0.000  0.000  0.012  0.006  0.000  0.001  0.001  0.001  0.001  0.001
       0.000  0.000  0.006  0.008  0.000  0.001  0.002  0.002  0.000  0.001
       0.000  0.006  0.000  0.000  0.008  0.001  0.001  0.002  0.001  0.000
       0.000  0.002  0.001  0.001  0.001  0.023  0.000  0.000  0.000  0.000
       0.001  0.000  0.001  0.002  0.001  0.000  0.065  0.021  0.022  0.040
       0.001  0.000  0.001  0.002  0.002  0.000  0.021  0.066  0.041  0.022
       0.002  0.000  0.001  0.000  0.001  0.000  0.022  0.041  0.056  0.024
       0.002  0.001  0.001  0.001  0.000  0.000  0.040  0.022  0.024  0.054
     Atomic magnetic moment mx, my, mz =     0.000000    0.000015   -0.216758

     Number of occupied Hubbard levels =    1.1591
 --- in v_hubbard ---
Hub. E (dc, noflip, flip, total)    1.6073   1.6510  -0.0000   0.0436
 -------

 ==============================================================================
     atom number    1 relative position :    0.0000   0.0000   0.0000
     charge :    13.633707  (integrated on a sphere of radius 0.045)
     magnetization :         -0.000000    0.000382    4.189532
     magnetization/charge:   -0.000000    0.000028    0.307292
     polar coord.: r, theta, phi [deg] :     4.189532    0.005223   90.000000

 ==============================================================================

 ==============================================================================
     atom number    2 relative position :    0.0000  -0.0000   1.4937
     charge :    13.622175  (integrated on a sphere of radius 0.045)
     magnetization :          0.000000    0.000012   -4.154048
     magnetization/charge:    0.000000    0.000001   -0.304947
     polar coord.: r, theta, phi [deg] :     4.154048  179.999832   90.000000

 ==============================================================================

 ==============================================================================
     atom number    3 relative position :    0.0000  -0.0000   0.6347
     charge :    12.578675  (integrated on a sphere of radius 0.046)
     magnetization :          0.000000   -0.001926   -0.003809
     magnetization/charge:    0.000000   -0.000153   -0.000303
     polar coord.: r, theta, phi [deg] :     0.004268  153.181198  -90.000000

 ==============================================================================

 ==============================================================================
     atom number    4 relative position :    0.0000  -0.0000   2.1284
     charge :    12.586454  (integrated on a sphere of radius 0.046)
     magnetization :          0.000000    0.000943    0.004991
     magnetization/charge:    0.000000    0.000075    0.000397
     polar coord.: r, theta, phi [deg] :     0.005079   10.700419   90.000000

 ==============================================================================

 ==============================================================================
     atom number    5 relative position :    0.0000  -0.0000   0.8590
     charge :    12.586454  (integrated on a sphere of radius 0.046)
     magnetization :         -0.000000    0.000943    0.004991
     magnetization/charge:   -0.000000    0.000075    0.000397
     polar coord.: r, theta, phi [deg] :     0.005079   10.700419   90.000000

 ==============================================================================

 ==============================================================================
     atom number    6 relative position :    0.0000  -0.0000   2.3528
     charge :    12.578675  (integrated on a sphere of radius 0.046)
     magnetization :          0.000000   -0.001926   -0.003809
     magnetization/charge:    0.000000   -0.000153   -0.000303
     polar coord.: r, theta, phi [deg] :     0.004268  153.181198  -90.000000

 ==============================================================================

 ==============================================================================
     atom number    7 relative position :    0.0000  -0.0000   0.1992
     charge :     3.899019  (integrated on a sphere of radius 0.045)
     magnetization :         -0.000000   -0.003249    0.011482
     magnetization/charge:   -0.000000   -0.000833    0.002945
     polar coord.: r, theta, phi [deg] :     0.011932   15.799891  -90.000000

 ==============================================================================

 ==============================================================================
     atom number    8 relative position :    0.0000  -0.0000   1.6929
     charge :     3.896578  (integrated on a sphere of radius 0.045)
     magnetization :          0.000000   -0.002611   -0.013451
     magnetization/charge:    0.000000   -0.000670   -0.003452
     polar coord.: r, theta, phi [deg] :     0.013702  169.017136  -90.000000

 ==============================================================================

 ==============================================================================
     atom number    9 relative position :    0.0000  -0.0000   1.2945
     charge :     3.896578  (integrated on a sphere of radius 0.045)
     magnetization :          0.000000   -0.002611   -0.013451
     magnetization/charge:    0.000000   -0.000670   -0.003452
     polar coord.: r, theta, phi [deg] :     0.013702  169.017136  -90.000000

 ==============================================================================

 ==============================================================================
     atom number   10 relative position :    0.0000  -0.0000   2.7883
     charge :     3.899019  (integrated on a sphere of radius 0.045)
     magnetization :         -0.000000   -0.003249    0.011482
     magnetization/charge:   -0.000000   -0.000833    0.002945
     polar coord.: r, theta, phi [deg] :     0.011932   15.799891  -90.000000

 ==============================================================================

 ==============================================================================
     atom number   11 relative position :    0.0000  -0.0000   0.4392
     charge :     3.909116  (integrated on a sphere of radius 0.045)
     magnetization :          0.000000   -0.000381   -0.063114
     magnetization/charge:    0.000000   -0.000097   -0.016145
     polar coord.: r, theta, phi [deg] :     0.063115  179.654475  -90.000000

 ==============================================================================

 ==============================================================================
     atom number   12 relative position :    0.0000  -0.0000   1.9330
     charge :     3.937991  (integrated on a sphere of radius 0.045)
     magnetization :         -0.000000    0.000306    0.064063
     magnetization/charge:   -0.000000    0.000078    0.016268
     polar coord.: r, theta, phi [deg] :     0.064064    0.273390   90.000000

 ==============================================================================

 ==============================================================================
     atom number   13 relative position :    0.0000  -0.0000   1.0545
     charge :     3.937991  (integrated on a sphere of radius 0.045)
     magnetization :         -0.000000    0.000306    0.064063
     magnetization/charge:   -0.000000    0.000078    0.016268
     polar coord.: r, theta, phi [deg] :     0.064064    0.273390   90.000000

 ==============================================================================

 ==============================================================================
     atom number   14 relative position :    0.0000  -0.0000   2.5482
     charge :     3.909116  (integrated on a sphere of radius 0.045)
     magnetization :         -0.000000   -0.000381   -0.063114
     magnetization/charge:   -0.000000   -0.000097   -0.016145
     polar coord.: r, theta, phi [deg] :     0.063115  179.654475  -90.000000

 ==============================================================================

     total cpu time spent up to now is      646.4 secs

     total energy              =   -7134.66147295 Ry
     estimated scf accuracy    <     110.09908044 Ry

     total magnetization       =     0.00     0.07     1.00 Bohr mag/cell
     absolute magnetization    =     2.10 Bohr mag/cell

     iteration #  3     ecut=    60.00 Ry     beta= 0.70
     Davidson diagonalization with overlap

---- Real-time Memory Report at c_bands before calling an iterative solver
           453 MiB given to the printing process from OS
             0 MiB allocation reported by mallinfo(arena+hblkhd)
        102052 MiB available memory on the node where the printing process lives
------------------
     c_bands:  2 eigenvalues not converged
     c_bands:  2 eigenvalues not converged
     c_bands:  2 eigenvalues not converged
     ethr =  6.64E-04,  avg # of iterations = 29.8

     ================= HUBBARD OCCUPATIONS ================
     ------------------------ ATOM    1 ------------------------
     Tr[ns(  1)] (up, down, total) =   4.67912  0.26109  4.94021
     eigenvalues:
       0.015  0.017  0.017  0.099  0.111  0.863  0.872  0.976  0.981  0.989
     eigenvectors (columns):
      -0.003 -0.009  0.000  0.004  0.013  0.008  0.009  0.061  0.140  0.988
      -0.000 -0.000  0.000  0.000 -0.000  0.000 -0.000  0.000  0.000 -0.000
       0.010 -0.003 -0.014 -0.000  0.003 -0.320 -0.709 -0.514  0.361 -0.010
      -0.007  0.005 -0.001  0.011 -0.009  0.260  0.571 -0.654  0.422 -0.026
       0.000  0.000  0.000 -0.000 -0.000 -0.000  0.000  0.000  0.000 -0.000
       0.000  0.000 -0.000  0.000  0.000  0.000 -0.000  0.000  0.000 -0.000
       0.272 -0.589 -0.068 -0.272  0.706  0.017  0.008 -0.001  0.009 -0.014
      -0.000 -0.000 -0.000  0.000  0.000 -0.000  0.000  0.000 -0.000 -0.000
      -0.000 -0.000 -0.000 -0.000 -0.000 -0.000 -0.000  0.000  0.000  0.000
       0.309 -0.685 -0.090  0.242 -0.606  0.003  0.001  0.000 -0.008  0.002
     occupations, | n_(i1, i2)^(sigma1, sigma2) |:
       0.988  0.000  0.001  0.001  0.001  0.001  0.012  0.010  0.000  0.001
       0.000  0.910  0.000  0.002  0.056  0.009  0.002  0.003  0.005  0.005
       0.001  0.000  0.912  0.052  0.004  0.011  0.006  0.004  0.006  0.005
       0.001  0.002  0.052  0.935  0.001  0.002  0.012  0.007  0.001  0.002
       0.001  0.056  0.004  0.001  0.933  0.000  0.013  0.009  0.001  0.003
       0.001  0.009  0.011  0.002  0.000  0.018  0.001  0.001  0.000  0.000
       0.012  0.002  0.006  0.012  0.013  0.001  0.071  0.003  0.002  0.046
       0.010  0.003  0.004  0.007  0.009  0.001  0.003  0.062  0.043  0.001
       0.000  0.005  0.006  0.001  0.001  0.000  0.002  0.043  0.055  0.002
       0.001  0.005  0.005  0.002  0.003  0.000  0.046  0.001  0.002  0.056
     Atomic magnetic moment mx, my, mz =    -0.000000   -0.002717    4.418031
     ------------------------ ATOM    2 ------------------------
     Tr[ns(  2)] (up, down, total) =   3.49994  4.97739  8.47733
     eigenvalues:
       0.566  0.659  0.706  0.755  0.815  0.993  0.994  0.997  0.997  0.997
     eigenvectors (columns):
       0.030  0.041  0.026  0.175 -0.983  0.001  0.003 -0.005 -0.001 -0.001
      -0.000 -0.000 -0.000 -0.000 -0.000  0.000  0.000  0.000  0.000 -0.000
      -0.363  0.434 -0.701  0.428  0.065 -0.002 -0.003  0.002 -0.006 -0.008
       0.615 -0.140  0.071  0.758  0.150 -0.003  0.001  0.002 -0.003 -0.001
       0.000 -0.000  0.000  0.000  0.000  0.000 -0.000  0.000 -0.000 -0.000
       0.000  0.000 -0.000  0.000  0.000  0.000 -0.000  0.000  0.000 -0.000
      -0.002  0.002 -0.004  0.001 -0.001 -0.475  0.563  0.412  0.529  0.089
      -0.000 -0.000 -0.000 -0.000 -0.000  0.000  0.000 -0.000  0.000  0.000
      -0.000 -0.000  0.000  0.000  0.000 -0.000 -0.000 -0.000  0.000  0.000
       0.002  0.001 -0.003  0.003 -0.003  0.455 -0.501  0.461  0.568  0.082
     occupations, | n_(i1, i2)^(sigma1, sigma2) |:
       0.812  0.007  0.003  0.012  0.003  0.000  0.000  0.000  0.001  0.001
       0.007  0.650  0.002  0.035  0.021  0.002  0.000  0.001  0.002  0.000
       0.003  0.002  0.688  0.051  0.024  0.002  0.001  0.000  0.001  0.001
       0.012  0.035  0.051  0.682  0.068  0.000  0.000  0.000  0.001  0.001
       0.003  0.021  0.024  0.068  0.667  0.000  0.000  0.001  0.001  0.001
       0.000  0.002  0.002  0.000  0.000  0.997  0.000  0.000  0.000  0.000
       0.000  0.000  0.001  0.000  0.000  0.000  0.995  0.000  0.000  0.002
       0.000  0.001  0.000  0.000  0.001  0.000  0.000  0.995  0.002  0.000
       0.001  0.002  0.001  0.001  0.001  0.000  0.000  0.002  0.995  0.000
       0.001  0.000  0.001  0.001  0.001  0.000  0.002  0.000  0.000  0.995
     Atomic magnetic moment mx, my, mz =    -0.000000    0.003176   -1.477452

     Number of occupied Hubbard levels =   13.4175
 --- in v_hubbard ---
Hub. E (dc, noflip, flip, total)    1.6073   1.6547  -0.0000   0.0474
 -------

 ==============================================================================
     atom number    1 relative position :    0.0000   0.0000   0.0000
     charge :    13.588789  (integrated on a sphere of radius 0.045)
     magnetization :          0.000000    0.000329    4.165311
     magnetization/charge:    0.000000    0.000024    0.306526
     polar coord.: r, theta, phi [deg] :     4.165311    0.004529   90.000000

 ==============================================================================

 ==============================================================================
     atom number    2 relative position :    0.0000  -0.0000   1.4937
     charge :    13.653370  (integrated on a sphere of radius 0.045)
     magnetization :          0.000000    0.000121   -4.072528
     magnetization/charge:    0.000000    0.000009   -0.298280
     polar coord.: r, theta, phi [deg] :     4.072528  179.998296   90.000000

 ==============================================================================

 ==============================================================================
     atom number    3 relative position :    0.0000  -0.0000   0.6347
     charge :    12.603540  (integrated on a sphere of radius 0.046)
     magnetization :          0.000000   -0.001871   -0.003931
     magnetization/charge:    0.000000   -0.000148   -0.000312
     polar coord.: r, theta, phi [deg] :     0.004354  154.548732  -90.000000

 ==============================================================================

 ==============================================================================
     atom number    4 relative position :    0.0000  -0.0000   2.1284
     charge :    12.597929  (integrated on a sphere of radius 0.046)
     magnetization :          0.000000    0.000948    0.005402
     magnetization/charge:    0.000000    0.000075    0.000429
     polar coord.: r, theta, phi [deg] :     0.005484    9.959014   90.000000

 ==============================================================================

 ==============================================================================
     atom number    5 relative position :    0.0000  -0.0000   0.8590
     charge :    12.597929  (integrated on a sphere of radius 0.046)
     magnetization :         -0.000000    0.000948    0.005402
     magnetization/charge:   -0.000000    0.000075    0.000429
     polar coord.: r, theta, phi [deg] :     0.005484    9.959014   90.000000

 ==============================================================================

 ==============================================================================
     atom number    6 relative position :    0.0000  -0.0000   2.3528
     charge :    12.603540  (integrated on a sphere of radius 0.046)
     magnetization :          0.000000   -0.001871   -0.003931
     magnetization/charge:    0.000000   -0.000148   -0.000312
     polar coord.: r, theta, phi [deg] :     0.004354  154.548732  -90.000000

 ==============================================================================

 ==============================================================================
     atom number    7 relative position :    0.0000  -0.0000   0.1992
     charge :     3.887506  (integrated on a sphere of radius 0.045)
     magnetization :         -0.000000   -0.003240    0.011952
     magnetization/charge:   -0.000000   -0.000833    0.003074
     polar coord.: r, theta, phi [deg] :     0.012383   15.166656  -90.000000

 ==============================================================================

 ==============================================================================
     atom number    8 relative position :    0.0000  -0.0000   1.6929
     charge :     3.890277  (integrated on a sphere of radius 0.045)
     magnetization :          0.000000   -0.002510   -0.013589
     magnetization/charge:    0.000000   -0.000645   -0.003493
     polar coord.: r, theta, phi [deg] :     0.013819  169.535008  -90.000000

 ==============================================================================

 ==============================================================================
     atom number    9 relative position :    0.0000  -0.0000   1.2945
     charge :     3.890277  (integrated on a sphere of radius 0.045)
     magnetization :          0.000000   -0.002510   -0.013589
     magnetization/charge:    0.000000   -0.000645   -0.003493
     polar coord.: r, theta, phi [deg] :     0.013819  169.535008  -90.000000

 ==============================================================================

 ==============================================================================
     atom number   10 relative position :    0.0000  -0.0000   2.7883
     charge :     3.887506  (integrated on a sphere of radius 0.045)
     magnetization :         -0.000000   -0.003240    0.011952
     magnetization/charge:   -0.000000   -0.000833    0.003074
     polar coord.: r, theta, phi [deg] :     0.012383   15.166656  -90.000000

 ==============================================================================

 ==============================================================================
     atom number   11 relative position :    0.0000  -0.0000   0.4392
     charge :     3.908411  (integrated on a sphere of radius 0.045)
     magnetization :          0.000000   -0.000336   -0.062797
     magnetization/charge:    0.000000   -0.000086   -0.016067
     polar coord.: r, theta, phi [deg] :     0.062797  179.693859  -90.000000

 ==============================================================================

 ==============================================================================
     atom number   12 relative position :    0.0000  -0.0000   1.9330
     charge :     3.913226  (integrated on a sphere of radius 0.045)
     magnetization :         -0.000000    0.000216    0.061384
     magnetization/charge:   -0.000000    0.000055    0.015686
     polar coord.: r, theta, phi [deg] :     0.061385    0.201795   90.000000

 ==============================================================================

 ==============================================================================
     atom number   13 relative position :    0.0000  -0.0000   1.0545
     charge :     3.913226  (integrated on a sphere of radius 0.045)
     magnetization :          0.000000    0.000216    0.061384
     magnetization/charge:    0.000000    0.000055    0.015686
     polar coord.: r, theta, phi [deg] :     0.061385    0.201795   90.000000

 ==============================================================================

 ==============================================================================
     atom number   14 relative position :    0.0000  -0.0000   2.5482
     charge :     3.908411  (integrated on a sphere of radius 0.045)
     magnetization :         -0.000000   -0.000336   -0.062797
     magnetization/charge:   -0.000000   -0.000086   -0.016067
     polar coord.: r, theta, phi [deg] :     0.062797  179.693859  -90.000000

 ==============================================================================

     total cpu time spent up to now is     1029.4 secs

     total energy              =   -7138.95083936 Ry
     estimated scf accuracy    <      69.43637235 Ry

     total magnetization       =     0.00    -0.03     2.45 Bohr mag/cell
     absolute magnetization    =     7.10 Bohr mag/cell

     iteration #  4     ecut=    60.00 Ry     beta= 0.70
     Davidson diagonalization with overlap

---- Real-time Memory Report at c_bands before calling an iterative solver
           461 MiB given to the printing process from OS
             0 MiB allocation reported by mallinfo(arena+hblkhd)
        101758 MiB available memory on the node where the printing process lives
------------------
     c_bands:  2 eigenvalues not converged
     c_bands:  1 eigenvalues not converged
     c_bands:  2 eigenvalues not converged
     c_bands:  1 eigenvalues not converged
     ethr =  6.64E-04,  avg # of iterations = 24.0

     ================= HUBBARD OCCUPATIONS ================
     ------------------------ ATOM    1 ------------------------
     Tr[ns(  1)] (up, down, total) =   4.97999  2.62146  7.60145
     eigenvalues:
       0.288  0.406  0.494  0.633  0.800  0.994  0.994  0.997  0.998  0.998
     eigenvectors (columns):
      -0.000 -0.000 -0.004  0.009 -0.000 -0.004  0.004  0.008  0.028 -0.999
       0.000 -0.000  0.000 -0.000  0.000 -0.000  0.000 -0.000 -0.000  0.000
      -0.009  0.003  0.003  0.003 -0.006  0.480 -0.578  0.472 -0.461 -0.013
      -0.001 -0.002 -0.002 -0.001  0.006 -0.455  0.478  0.572 -0.488 -0.005
      -0.000 -0.000 -0.000  0.000 -0.000  0.000 -0.000 -0.000 -0.000  0.000
      -0.000  0.000 -0.000 -0.000 -0.000 -0.000  0.000 -0.000 -0.000  0.000
       0.007  0.250  0.037  0.696 -0.672 -0.012  0.002 -0.001  0.000  0.007
       0.000  0.000  0.000 -0.000 -0.000 -0.000  0.000  0.000  0.000 -0.000
      -0.000  0.000  0.000  0.000  0.000 -0.000  0.000 -0.000 -0.000 -0.000
      -0.048 -0.336  0.828  0.348  0.280 -0.001 -0.000 -0.001  0.002  0.000
     occupations, | n_(i1, i2)^(sigma1, sigma2) |:
       0.998  0.000  0.000  0.000  0.000  0.000  0.002  0.003  0.000  0.000
       0.000  0.995  0.000  0.000  0.002  0.005  0.001  0.001  0.000  0.001
       0.000  0.000  0.995  0.002  0.000  0.006  0.002  0.001  0.002  0.001
       0.000  0.000  0.002  0.996  0.000  0.001  0.001  0.001  0.001  0.000
       0.000  0.002  0.000  0.000  0.996  0.000  0.001  0.001  0.001  0.000
       0.000  0.005  0.006  0.001  0.000  0.291  0.009  0.028  0.013  0.018
       0.002  0.001  0.002  0.001  0.001  0.009  0.694  0.052  0.095  0.016
       0.003  0.001  0.001  0.001  0.001  0.028  0.052  0.642  0.081  0.074
       0.000  0.000  0.002  0.001  0.001  0.013  0.095  0.081  0.470  0.061
       0.000  0.001  0.001  0.000  0.000  0.018  0.016  0.074  0.061  0.524
     Atomic magnetic moment mx, my, mz =     0.000000   -0.002593    2.358529
     ------------------------ ATOM    2 ------------------------
     Tr[ns(  2)] (up, down, total) =   0.44025  4.75421  5.19446
     eigenvalues:
       0.023  0.024  0.025  0.181  0.185  0.889  0.900  0.988  0.988  0.990
     eigenvectors (columns):
       0.115 -0.152 -0.981  0.003  0.003  0.010 -0.009 -0.008  0.001 -0.001
      -0.000  0.000 -0.000 -0.000  0.000  0.000 -0.000  0.000 -0.000 -0.000
       0.481  0.389 -0.003  0.651 -0.439 -0.010 -0.013  0.001 -0.010 -0.013
       0.558  0.553 -0.021 -0.540  0.302 -0.005 -0.003  0.000  0.006  0.001
      -0.000  0.000 -0.000  0.000 -0.000  0.000 -0.000 -0.000  0.000  0.000
       0.000 -0.000  0.000  0.000 -0.000  0.000  0.000 -0.000  0.000 -0.000
      -0.010 -0.002 -0.012  0.001  0.001 -0.796 -0.054  0.483  0.353  0.074
      -0.000 -0.000  0.000 -0.000  0.000  0.000 -0.000 -0.000  0.000  0.000
      -0.000  0.000  0.000  0.000 -0.000 -0.000  0.000 -0.000  0.000  0.000
       0.009  0.001  0.002  0.012  0.003  0.601  0.048  0.637  0.472  0.088
     occupations, | n_(i1, i2)^(sigma1, sigma2) |:
       0.025  0.000  0.000  0.000  0.001  0.000  0.010  0.011  0.000  0.000
       0.000  0.124  0.008  0.001  0.077  0.010  0.003  0.000  0.005  0.009
       0.000  0.008  0.122  0.077  0.002  0.012  0.004  0.004  0.009  0.009
       0.000  0.001  0.077  0.084  0.006  0.000  0.006  0.004  0.001  0.000
       0.001  0.077  0.002  0.006  0.084  0.000  0.006  0.007  0.002  0.000
       0.000  0.010  0.012  0.000  0.000  0.990  0.001  0.003  0.002  0.000
       0.010  0.003  0.004  0.006  0.006  0.001  0.925  0.001  0.001  0.048
       0.011  0.000  0.004  0.004  0.007  0.003  0.001  0.930  0.042  0.000
       0.000  0.005  0.009  0.001  0.002  0.002  0.001  0.042  0.958  0.000
       0.000  0.009  0.009  0.000  0.000  0.000  0.048  0.000  0.000  0.952
     Atomic magnetic moment mx, my, mz =    -0.000000   -0.004088   -4.313964

     Number of occupied Hubbard levels =   12.7959
 --- in v_hubbard ---
Hub. E (dc, noflip, flip, total)    1.6607   1.7247  -0.0000   0.0640
 -------

 ==============================================================================
     atom number    1 relative position :    0.0000   0.0000   0.0000
     charge :    13.660179  (integrated on a sphere of radius 0.045)
     magnetization :          0.000000   -0.000150    3.910001
     magnetization/charge:    0.000000   -0.000011    0.286234
     polar coord.: r, theta, phi [deg] :     3.910001    0.002198  -90.000000

 ==============================================================================

 ==============================================================================
     atom number    2 relative position :    0.0000  -0.0000   1.4937
     charge :    13.662678  (integrated on a sphere of radius 0.045)
     magnetization :          0.000000    0.000019   -3.838310
     magnetization/charge:    0.000000    0.000001   -0.280934
     polar coord.: r, theta, phi [deg] :     3.838310  179.999722   90.000000

 ==============================================================================

 ==============================================================================
     atom number    3 relative position :    0.0000  -0.0000   0.6347
     charge :    12.691515  (integrated on a sphere of radius 0.046)
     magnetization :         -0.000000   -0.001608   -0.003761
     magnetization/charge:   -0.000000   -0.000127   -0.000296
     polar coord.: r, theta, phi [deg] :     0.004090  156.850832  -90.000000

 ==============================================================================

 ==============================================================================
     atom number    4 relative position :    0.0000  -0.0000   2.1284
     charge :    12.688831  (integrated on a sphere of radius 0.046)
     magnetization :          0.000000    0.000890    0.006970
     magnetization/charge:    0.000000    0.000070    0.000549
     polar coord.: r, theta, phi [deg] :     0.007026    7.273280   90.000000

 ==============================================================================

 ==============================================================================
     atom number    5 relative position :    0.0000  -0.0000   0.8590
     charge :    12.688831  (integrated on a sphere of radius 0.046)
     magnetization :          0.000000    0.000890    0.006970
     magnetization/charge:    0.000000    0.000070    0.000549
     polar coord.: r, theta, phi [deg] :     0.007026    7.273280   90.000000

 ==============================================================================

 ==============================================================================
     atom number    6 relative position :    0.0000  -0.0000   2.3528
     charge :    12.691515  (integrated on a sphere of radius 0.046)
     magnetization :         -0.000000   -0.001608   -0.003761
     magnetization/charge:   -0.000000   -0.000127   -0.000296
     polar coord.: r, theta, phi [deg] :     0.004090  156.850832  -90.000000

 ==============================================================================

 ==============================================================================
     atom number    7 relative position :    0.0000  -0.0000   0.1992
     charge :     3.805725  (integrated on a sphere of radius 0.045)
     magnetization :         -0.000000   -0.003292    0.014431
     magnetization/charge:   -0.000000   -0.000865    0.003792
     polar coord.: r, theta, phi [deg] :     0.014801   12.849741  -90.000000

 ==============================================================================

 ==============================================================================
     atom number    8 relative position :    0.0000  -0.0000   1.6929
     charge :     3.805797  (integrated on a sphere of radius 0.045)
     magnetization :         -0.000000   -0.001873   -0.005481
     magnetization/charge:   -0.000000   -0.000492   -0.001440
     polar coord.: r, theta, phi [deg] :     0.005792  161.129815  -90.000000

 ==============================================================================

 ==============================================================================
     atom number    9 relative position :    0.0000  -0.0000   1.2945
     charge :     3.805797  (integrated on a sphere of radius 0.045)
     magnetization :          0.000000   -0.001873   -0.005481
     magnetization/charge:    0.000000   -0.000492   -0.001440
     polar coord.: r, theta, phi [deg] :     0.005792  161.129815  -90.000000

 ==============================================================================

 ==============================================================================
     atom number   10 relative position :    0.0000  -0.0000   2.7883
     charge :     3.805725  (integrated on a sphere of radius 0.045)
     magnetization :         -0.000000   -0.003292    0.014431
     magnetization/charge:   -0.000000   -0.000865    0.003792
     polar coord.: r, theta, phi [deg] :     0.014801   12.849741  -90.000000

 ==============================================================================

 ==============================================================================
     atom number   11 relative position :    0.0000  -0.0000   0.4392
     charge :     3.859858  (integrated on a sphere of radius 0.045)
     magnetization :          0.000000    0.000064   -0.038115
     magnetization/charge:    0.000000    0.000017   -0.009875
     polar coord.: r, theta, phi [deg] :     0.038115  179.903672   90.000000

 ==============================================================================

 ==============================================================================
     atom number   12 relative position :    0.0000  -0.0000   1.9330
     charge :     3.866179  (integrated on a sphere of radius 0.045)
     magnetization :         -0.000000   -0.000166    0.055941
     magnetization/charge:   -0.000000   -0.000043    0.014469
     polar coord.: r, theta, phi [deg] :     0.055941    0.170230  -90.000000

 ==============================================================================

 ==============================================================================
     atom number   13 relative position :    0.0000  -0.0000   1.0545
     charge :     3.866179  (integrated on a sphere of radius 0.045)
     magnetization :         -0.000000   -0.000166    0.055941
     magnetization/charge:   -0.000000   -0.000043    0.014469
     polar coord.: r, theta, phi [deg] :     0.055941    0.170230  -90.000000

 ==============================================================================

 ==============================================================================
     atom number   14 relative position :    0.0000  -0.0000   2.5482
     charge :     3.859858  (integrated on a sphere of radius 0.045)
     magnetization :          0.000000    0.000064   -0.038115
     magnetization/charge:    0.000000    0.000017   -0.009875
     polar coord.: r, theta, phi [deg] :     0.038115  179.903672   90.000000

 ==============================================================================

     total cpu time spent up to now is     1274.0 secs

     total energy              =   -7139.83130065 Ry
     estimated scf accuracy    <      26.79085258 Ry

     total magnetization       =    -0.00    -0.02    -0.69 Bohr mag/cell
     absolute magnetization    =     8.11 Bohr mag/cell

     iteration #  5     ecut=    60.00 Ry     beta= 0.70
     Davidson diagonalization with overlap

---- Real-time Memory Report at c_bands before calling an iterative solver
           468 MiB given to the printing process from OS
             0 MiB allocation reported by mallinfo(arena+hblkhd)
        101607 MiB available memory on the node where the printing process lives
------------------
     ethr =  6.64E-04,  avg # of iterations = 14.5

     ================= HUBBARD OCCUPATIONS ================
     ------------------------ ATOM    1 ------------------------
     Tr[ns(  1)] (up, down, total) =   4.94884  0.63089  5.57973
     eigenvalues:
       0.032  0.070  0.087  0.216  0.224  0.978  0.985  0.995  0.995  0.996
     eigenvectors (columns):
      -0.004 -0.001  0.007  0.001 -0.008 -0.000  0.002 -0.007  0.023 -1.000
      -0.000  0.000 -0.000 -0.000  0.000 -0.000  0.000 -0.000  0.000  0.000
      -0.002  0.010  0.001  0.003  0.000 -0.541  0.522 -0.444  0.488  0.015
      -0.005 -0.004 -0.001  0.005  0.000  0.475 -0.458 -0.507  0.555  0.015
       0.000 -0.000  0.000 -0.000  0.000  0.000 -0.000 -0.000  0.000  0.000
       0.000 -0.000 -0.000  0.000 -0.000 -0.000  0.000 -0.000  0.000 -0.000
       0.064  0.241  0.548 -0.445 -0.663  0.000 -0.005  0.001  0.004  0.008
      -0.000 -0.000  0.000  0.000 -0.000 -0.000  0.000  0.000 -0.000 -0.000
      -0.000 -0.000  0.000 -0.000  0.000 -0.000  0.000  0.000 -0.000 -0.000
       0.004  0.322  0.728  0.253  0.549 -0.000 -0.006 -0.000 -0.004  0.000
     occupations, | n_(i1, i2)^(sigma1, sigma2) |:
       0.996  0.000  0.000  0.000  0.000  0.000  0.006  0.007  0.001  0.001
       0.000  0.988  0.002  0.002  0.007  0.007  0.001  0.001  0.004  0.004
       0.000  0.002  0.987  0.007  0.002  0.007  0.001  0.000  0.004  0.004
       0.000  0.002  0.007  0.989  0.002  0.001  0.003  0.005  0.002  0.001
       0.000  0.007  0.002  0.002  0.989  0.001  0.004  0.004  0.001  0.001
       0.000  0.007  0.007  0.001  0.001  0.054  0.003  0.015  0.014  0.006
       0.006  0.001  0.001  0.003  0.004  0.003  0.172  0.003  0.009  0.066
       0.007  0.001  0.000  0.005  0.004  0.015  0.003  0.158  0.080  0.008
       0.001  0.004  0.004  0.002  0.001  0.014  0.009  0.080  0.111  0.007
       0.001  0.004  0.004  0.001  0.001  0.006  0.066  0.008  0.007  0.135
     Atomic magnetic moment mx, my, mz =     0.000000   -0.003639    4.317943
     ------------------------ ATOM    2 ------------------------
     Tr[ns(  2)] (up, down, total) =   0.48132  4.88939  5.37071
     eigenvalues:
       0.025  0.026  0.026  0.196  0.208  0.952  0.959  0.991  0.992  0.995
     eigenvectors (columns):
       0.003 -0.879 -0.476  0.003  0.000  0.012  0.001 -0.000  0.008  0.000
       0.000 -0.000  0.000 -0.000  0.000  0.000 -0.000  0.000  0.000  0.000
      -0.377 -0.232  0.429  0.522  0.589  0.000 -0.001 -0.007  0.000  0.008
      -0.428 -0.317  0.580 -0.444 -0.428 -0.000 -0.009  0.005  0.000  0.001
       0.000 -0.000  0.000  0.000 -0.000  0.000 -0.000 -0.000 -0.000  0.000
      -0.000  0.000 -0.000  0.000 -0.000  0.000  0.000  0.000 -0.000  0.000
       0.006 -0.008 -0.006  0.010  0.000 -0.580 -0.590  0.417 -0.376 -0.009
      -0.000  0.000 -0.000 -0.000  0.000  0.000 -0.000 -0.000 -0.000  0.000
       0.000  0.000  0.000  0.000  0.000 -0.000  0.000 -0.000 -0.000  0.000
      -0.005 -0.001  0.001  0.003  0.000  0.359  0.432  0.573 -0.597 -0.009
     occupations, | n_(i1, i2)^(sigma1, sigma2) |:
       0.026  0.000  0.000  0.000  0.000  0.000  0.009  0.009  0.001  0.000
       0.000  0.134  0.010  0.001  0.085  0.007  0.002  0.001  0.004  0.004
       0.000  0.010  0.135  0.085  0.001  0.006  0.002  0.001  0.004  0.004
       0.000  0.001  0.085  0.093  0.004  0.002  0.006  0.006  0.001  0.002
       0.000  0.085  0.001  0.004  0.093  0.002  0.006  0.006  0.002  0.001
       0.000  0.007  0.006  0.002  0.002  0.995  0.000  0.000  0.000  0.000
       0.009  0.002  0.002  0.006  0.006  0.000  0.967  0.003  0.002  0.017
       0.009  0.001  0.001  0.006  0.006  0.000  0.003  0.966  0.017  0.001
       0.001  0.004  0.004  0.001  0.002  0.000  0.002  0.017  0.981  0.001
       0.000  0.004  0.004  0.002  0.001  0.000  0.017  0.001  0.001  0.981
     Atomic magnetic moment mx, my, mz =    -0.000000   -0.002401   -4.408064

     Number of occupied Hubbard levels =   10.9504
 --- in v_hubbard ---
Hub. E (dc, noflip, flip, total)    1.7061   1.7613  -0.0000   0.0553
 -------

[...]
     6.7280   6.7556   6.8340   6.8582   7.0151   7.0177   7.0552   7.0686
     7.2214   7.2291   7.3189   7.3347   7.5316   7.5779   7.6278   7.6773
     7.6891   7.7065

     occupation numbers 
     1.0000   1.0000   1.0000   1.0000   1.0000   1.0000   1.0000   1.0000
     1.0000   1.0000   1.0000   1.0000   1.0000   1.0000   1.0000   1.0000
     1.0000   1.0000   1.0000   1.0000   1.0000   1.0000   1.0000   1.0000
     1.0000   1.0000   1.0000   1.0000   1.0000   1.0000   1.0000   1.0000
     1.0000   1.0000   1.0000   1.0000   1.0000   1.0000   1.0000   1.0000
     1.0000   1.0000   1.0000   1.0000   1.0000   1.0000   1.0000   1.0000
     1.0000   1.0000   1.0000   1.0000   1.0000   1.0000   1.0000   1.0000
     1.0000   1.0000   1.0000   1.0000   1.0000   1.0000   1.0000   1.0000
     1.0000   1.0000   1.0000   1.0000   1.0000   1.0000   1.0000   1.0000
     1.0000   1.0000   1.0000   1.0000   1.0000   1.0000   1.0000   1.0000
     1.0000   1.0000   1.0000   1.0000   1.0000   1.0000   1.0000   1.0000
     1.0000   1.0000   1.0000   1.0000   1.0000   1.0000   1.0000   1.0000
     1.0000   1.0000   1.0000   1.0000   1.0000   1.0000   1.0000   1.0000
     1.0000   1.0000   1.0000   1.0000   1.0000   1.0000   1.0000   1.0000
     1.0000   1.0000   1.0000   1.0000   1.0000   1.0000   1.0000   1.0000
     1.0000   1.0000   1.0000   1.0000   1.0000   1.0000   1.0000   1.0000
     1.0000   1.0000   1.0000   1.0000   1.0000   1.0000   1.0000   1.0000
     1.0000   1.0000

          k = 3.1612 1.8251-0.1674 ( 23516 PWs)   bands (ev):

   -74.2825 -74.2710 -69.6256 -69.6141 -43.5148 -43.5032 -43.1511 -43.1398
   -42.5993 -42.5877 -38.7934 -38.7818 -38.4061 -38.3949 -38.0424 -38.0308
   -16.8773 -16.8772 -16.8673 -16.8673 -16.8616 -16.8616 -16.8585 -16.8585
   -16.8544 -16.8544 -16.8523 -16.8523 -16.8486 -16.8485 -16.8455 -16.8454
   -13.9053 -13.9053 -13.8934 -13.8934 -13.8891 -13.8891 -13.8824 -13.8824
   -13.8804 -13.8804 -13.8778 -13.8778 -13.8741 -13.8741 -13.8696 -13.8696
   -13.8662 -13.8662 -13.8616 -13.8615 -13.8577 -13.8577 -13.8487 -13.8486
    -3.8128  -3.8100  -3.7794  -3.7768  -3.7246  -3.7231  -3.6735  -3.6723
    -3.1695  -3.1621  -3.1463  -3.1404  -3.0395  -3.0356  -2.9956  -2.9860
    -2.3419  -2.3404  -2.3050  -2.3046  -2.1493  -2.1491  -2.0993  -2.0983
     2.4631   2.4750   2.5893   2.5969   2.8215   2.8260   2.9737   2.9901
     3.2716   3.2859   3.5541   3.5647   3.7016   3.7117   3.9479   3.9624
     4.0315   4.0334   4.0730   4.0855   4.1628   4.1793   4.1934   4.2070
     4.3928   4.4024   4.5431   4.5774   4.6601   4.6985   4.7342   4.7395
     4.8241   4.8269   4.9254   4.9282   4.9789   5.0091   5.3816   5.3963
     5.4930   5.5076   5.8798   5.8853   5.8988   5.9081   6.0645   6.0705
     6.2505   6.2528   6.4601   6.4676   6.7092   6.7254   7.1209   7.1377
     7.2850   7.2891

     occupation numbers 
     1.0000   1.0000   1.0000   1.0000   1.0000   1.0000   1.0000   1.0000
     1.0000   1.0000   1.0000   1.0000   1.0000   1.0000   1.0000   1.0000
     1.0000   1.0000   1.0000   1.0000   1.0000   1.0000   1.0000   1.0000
     1.0000   1.0000   1.0000   1.0000   1.0000   1.0000   1.0000   1.0000
     1.0000   1.0000   1.0000   1.0000   1.0000   1.0000   1.0000   1.0000
     1.0000   1.0000   1.0000   1.0000   1.0000   1.0000   1.0000   1.0000
     1.0000   1.0000   1.0000   1.0000   1.0000   1.0000   1.0000   1.0000
     1.0000   1.0000   1.0000   1.0000   1.0000   1.0000   1.0000   1.0000
     1.0000   1.0000   1.0000   1.0000   1.0000   1.0000   1.0000   1.0000
     1.0000   1.0000   1.0000   1.0000   1.0000   1.0000   1.0000   1.0000
     1.0000   1.0000   1.0000   1.0000   1.0000   1.0000   1.0000   1.0000
     1.0000   1.0000   1.0000   1.0000   1.0000   1.0000   1.0000   1.0000
     1.0000   1.0000   1.0000   1.0000   1.0000   1.0000   1.0000   1.0000
     1.0000   1.0000   1.0000   1.0000   1.0000   1.0000   1.0000   1.0000
     1.0000   1.0000   1.0000   1.0000   1.0000   1.0000   1.0000   1.0000
     1.0000   1.0000   1.0000   1.0000   1.0000   1.0000   1.0000   1.0000
     1.0000   1.0000   1.0000   1.0000   1.0000   1.0000   1.0000   1.0000
     1.0000   1.0000

          k = 0.0000-3.6502-0.1674 ( 23516 PWs)   bands (ev):

   -74.2825 -74.2710 -69.6256 -69.6141 -43.5148 -43.5032 -43.1511 -43.1398
   -42.5993 -42.5877 -38.7934 -38.7818 -38.4061 -38.3949 -38.0424 -38.0308
   -16.8771 -16.8771 -16.8674 -16.8674 -16.8611 -16.8610 -16.8583 -16.8582
   -16.8548 -16.8547 -16.8524 -16.8524 -16.8506 -16.8506 -16.8439 -16.8438
   -13.8983 -13.8983 -13.8963 -13.8963 -13.8898 -13.8898 -13.8895 -13.8895
   -13.8807 -13.8806 -13.8778 -13.8778 -13.8747 -13.8747 -13.8680 -13.8680
   -13.8653 -13.8653 -13.8599 -13.8599 -13.8556 -13.8556 -13.8504 -13.8504
    -3.8153  -3.8113  -3.7727  -3.7684  -3.7224  -3.7220  -3.6794  -3.6783
    -3.1716  -3.1647  -3.1447  -3.1381  -3.0402  -3.0374  -2.9955  -2.9848
    -2.3416  -2.3404  -2.3054  -2.3046  -2.1519  -2.1513  -2.0970  -2.0961
     2.4737   2.4767   2.5858   2.5928   2.8155   2.8329   2.9699   2.9899
     3.2685   3.2868   3.5373   3.5773   3.7049   3.7084   3.9356   3.9715
     4.0325   4.0377   4.0571   4.0988   4.1694   4.1706   4.1987   4.2032
     4.3945   4.4024   4.5242   4.5959   4.6612   4.7120   4.7541   4.7572
     4.7929   4.8249   4.8948   4.9135   5.0075   5.0161   5.3578   5.4041
     5.4931   5.5151   5.8810   5.8876   5.8905   5.9086   6.0522   6.0877
     6.2378   6.2661   6.4542   6.4727   6.7043   6.7306   7.1229   7.1373
     7.2821   7.2936

     occupation numbers 
     1.0000   1.0000   1.0000   1.0000   1.0000   1.0000   1.0000   1.0000
     1.0000   1.0000   1.0000   1.0000   1.0000   1.0000   1.0000   1.0000
     1.0000   1.0000   1.0000   1.0000   1.0000   1.0000   1.0000   1.0000
     1.0000   1.0000   1.0000   1.0000   1.0000   1.0000   1.0000   1.0000
     1.0000   1.0000   1.0000   1.0000   1.0000   1.0000   1.0000   1.0000
     1.0000   1.0000   1.0000   1.0000   1.0000   1.0000   1.0000   1.0000
     1.0000   1.0000   1.0000   1.0000   1.0000   1.0000   1.0000   1.0000
     1.0000   1.0000   1.0000   1.0000   1.0000   1.0000   1.0000   1.0000
     1.0000   1.0000   1.0000   1.0000   1.0000   1.0000   1.0000   1.0000
     1.0000   1.0000   1.0000   1.0000   1.0000   1.0000   1.0000   1.0000
     1.0000   1.0000   1.0000   1.0000   1.0000   1.0000   1.0000   1.0000
     1.0000   1.0000   1.0000   1.0000   1.0000   1.0000   1.0000   1.0000
     1.0000   1.0000   1.0000   1.0000   1.0000   1.0000   1.0000   1.0000
     1.0000   1.0000   1.0000   1.0000   1.0000   1.0000   1.0000   1.0000
     1.0000   1.0000   1.0000   1.0000   1.0000   1.0000   1.0000   1.0000
     1.0000   1.0000   1.0000   1.0000   1.0000   1.0000   1.0000   1.0000
     1.0000   1.0000   1.0000   1.0000   1.0000   1.0000   1.0000   1.0000
     1.0000   1.0000

          k = 3.1612-1.8251-0.3347 ( 23494 PWs)   bands (ev):

   -74.2825 -74.2710 -69.6256 -69.6141 -43.5148 -43.5032 -43.1511 -43.1398
   -42.5993 -42.5877 -38.7934 -38.7818 -38.4061 -38.3949 -38.0424 -38.0308
   -16.8773 -16.8772 -16.8673 -16.8673 -16.8616 -16.8615 -16.8585 -16.8585
   -16.8544 -16.8543 -16.8523 -16.8522 -16.8485 -16.8485 -16.8455 -16.8454
   -13.9053 -13.9052 -13.8934 -13.8933 -13.8891 -13.8890 -13.8824 -13.8824
   -13.8804 -13.8803 -13.8778 -13.8777 -13.8741 -13.8740 -13.8696 -13.8695
   -13.8662 -13.8662 -13.8616 -13.8615 -13.8576 -13.8576 -13.8487 -13.8486
    -3.8146  -3.8072  -3.7840  -3.7732  -3.7273  -3.7195  -3.6801  -3.6665
    -3.1897  -3.1750  -3.1073  -3.0870  -3.0869  -3.0728  -2.9858  -2.9702
    -2.3493  -2.3310  -2.3110  -2.3015  -2.1527  -2.1442  -2.1001  -2.0984
     2.4625   2.5126   2.5236   2.6176   2.8255   2.8504   2.9113   3.0258
     3.2794   3.3109   3.5537   3.5743   3.7050   3.7166   3.8010   3.8436
     4.0498   4.0616   4.1831   4.1930   4.2010   4.2334   4.2402   4.2821
     4.3083   4.3333   4.5255   4.5614   4.5731   4.6192   4.6593   4.7589
     4.7641   4.8909   4.9211   4.9838   5.1409   5.1746   5.1995   5.2259
     5.5528   5.5733   5.7862   5.8401   6.0078   6.0366   6.0956   6.1286
     6.1692   6.2037   6.3578   6.3864   6.8411   6.8874   7.0089   7.0269
     7.2665   7.2953

     occupation numbers 
     1.0000   1.0000   1.0000   1.0000   1.0000   1.0000   1.0000   1.0000
     1.0000   1.0000   1.0000   1.0000   1.0000   1.0000   1.0000   1.0000
     1.0000   1.0000   1.0000   1.0000   1.0000   1.0000   1.0000   1.0000
     1.0000   1.0000   1.0000   1.0000   1.0000   1.0000   1.0000   1.0000
     1.0000   1.0000   1.0000   1.0000   1.0000   1.0000   1.0000   1.0000
     1.0000   1.0000   1.0000   1.0000   1.0000   1.0000   1.0000   1.0000
     1.0000   1.0000   1.0000   1.0000   1.0000   1.0000   1.0000   1.0000
     1.0000   1.0000   1.0000   1.0000   1.0000   1.0000   1.0000   1.0000
     1.0000   1.0000   1.0000   1.0000   1.0000   1.0000   1.0000   1.0000
     1.0000   1.0000   1.0000   1.0000   1.0000   1.0000   1.0000   1.0000
     1.0000   1.0000   1.0000   1.0000   1.0000   1.0000   1.0000   1.0000
     1.0000   1.0000   1.0000   1.0000   1.0000   1.0000   1.0000   1.0000
     1.0000   1.0000   1.0000   1.0000   1.0000   1.0000   1.0000   1.0000
     1.0000   1.0000   1.0000   1.0000   1.0000   1.0000   1.0000   1.0000
     1.0000   1.0000   1.0000   1.0000   1.0000   1.0000   1.0000   1.0000
     1.0000   1.0000   1.0000   1.0000   1.0000   1.0000   1.0000   1.0000
     1.0000   1.0000   1.0000   1.0000   1.0000   1.0000   1.0000   1.0000
     1.0000   1.0000

          k = 0.0000 3.6502-0.3347 ( 23494 PWs)   bands (ev):

   -74.2825 -74.2710 -69.6256 -69.6141 -43.5148 -43.5032 -43.1511 -43.1398
   -42.5993 -42.5877 -38.7934 -38.7818 -38.4061 -38.3949 -38.0424 -38.0308
   -16.8771 -16.8770 -16.8674 -16.8674 -16.8611 -16.8610 -16.8583 -16.8582
   -16.8547 -16.8547 -16.8524 -16.8523 -16.8506 -16.8505 -16.8439 -16.8438
   -13.8983 -13.8982 -13.8963 -13.8962 -13.8898 -13.8897 -13.8895 -13.8894
   -13.8807 -13.8806 -13.8777 -13.8777 -13.8747 -13.8746 -13.8680 -13.8679
   -13.8652 -13.8652 -13.8599 -13.8598 -13.8556 -13.8555 -13.8504 -13.8503
    -3.8165  -3.8094  -3.7762  -3.7655  -3.7257  -3.7175  -3.6862  -3.6726
    -3.1927  -3.1724  -3.1096  -3.0893  -3.0854  -3.0710  -2.9880  -2.9685
    -2.3491  -2.3308  -2.3111  -2.3017  -2.1553  -2.1466  -2.0978  -2.0962
     2.4737   2.5040   2.5382   2.6032   2.8265   2.8483   2.9182   3.0174
     3.2832   3.3061   3.5434   3.5804   3.7070   3.7144   3.7992   3.8449
     4.0507   4.0590   4.1835   4.1934   4.2022   4.2263   4.2330   4.2852
     4.3123   4.3337   4.5430   4.5615   4.5719   4.6182   4.6798   4.7476
     4.7657   4.8877   4.9381   4.9570   5.1225   5.1430   5.2238   5.2472
     5.5426   5.5856   5.7796   5.8472   6.0076   6.0312   6.0942   6.1322
     6.1717   6.2010   6.3573   6.3852   6.8467   6.8841   7.0134   7.0249
     7.2698   7.2929

     occupation numbers 
     1.0000   1.0000   1.0000   1.0000   1.0000   1.0000   1.0000   1.0000
     1.0000   1.0000   1.0000   1.0000   1.0000   1.0000   1.0000   1.0000
     1.0000   1.0000   1.0000   1.0000   1.0000   1.0000   1.0000   1.0000
     1.0000   1.0000   1.0000   1.0000   1.0000   1.0000   1.0000   1.0000
     1.0000   1.0000   1.0000   1.0000   1.0000   1.0000   1.0000   1.0000
     1.0000   1.0000   1.0000   1.0000   1.0000   1.0000   1.0000   1.0000
     1.0000   1.0000   1.0000   1.0000   1.0000   1.0000   1.0000   1.0000
     1.0000   1.0000   1.0000   1.0000   1.0000   1.0000   1.0000   1.0000
     1.0000   1.0000   1.0000   1.0000   1.0000   1.0000   1.0000   1.0000
     1.0000   1.0000   1.0000   1.0000   1.0000   1.0000   1.0000   1.0000
     1.0000   1.0000   1.0000   1.0000   1.0000   1.0000   1.0000   1.0000
     1.0000   1.0000   1.0000   1.0000   1.0000   1.0000   1.0000   1.0000
     1.0000   1.0000   1.0000   1.0000   1.0000   1.0000   1.0000   1.0000
     1.0000   1.0000   1.0000   1.0000   1.0000   1.0000   1.0000   1.0000
     1.0000   1.0000   1.0000   1.0000   1.0000   1.0000   1.0000   1.0000
     1.0000   1.0000   1.0000   1.0000   1.0000   1.0000   1.0000   1.0000
     1.0000   1.0000   1.0000   1.0000   1.0000   1.0000   1.0000   1.0000
     1.0000   1.0000

          k = 0.0000 0.0000-0.5021 ( 23456 PWs)   bands (ev):

   -74.2825 -74.2710 -69.6256 -69.6142 -43.5145 -43.5029 -43.1512 -43.1399
   -42.5989 -42.5874 -38.7929 -38.7813 -38.4062 -38.3951 -38.0418 -38.0302
   -16.8769 -16.8768 -16.8702 -16.8701 -16.8609 -16.8608 -16.8607 -16.8607
   -16.8554 -16.8553 -16.8549 -16.8547 -16.8519 -16.8518 -16.8450 -16.8449
   -13.9021 -13.9020 -13.8895 -13.8894 -13.8885 -13.8884 -13.8875 -13.8874
   -13.8813 -13.8812 -13.8768 -13.8767 -13.8742 -13.8741 -13.8719 -13.8718
   -13.8677 -13.8676 -13.8665 -13.8663 -13.8632 -13.8631 -13.8545 -13.8543
    -5.4829  -5.4801  -5.3752  -5.3745  -5.2636  -5.2606  -5.1304  -5.1302
    -3.7696  -3.7605  -3.7063  -3.6958  -3.1887  -3.1803  -3.1617  -3.1510
    -1.3182  -1.3149  -1.2849  -1.2815  -0.5851  -0.5820  -0.5714  -0.5666
     3.3634   3.3762   3.5902   3.6011   3.6475   3.6594   4.0520   4.0634
     4.0655   4.0772   4.1101   4.1189   4.5157   4.5224   4.9061   4.9062
     4.9979   5.0038   5.4585   5.4652   5.4781   5.4853   5.7047   5.7142
     5.8192   5.8431   5.9760   5.9987   6.1496   6.1620   6.3116   6.3163
     6.3223   6.3265   6.3937   6.3953   6.4274   6.4275   6.6790   6.6817
     6.7283   6.7332   6.8983   6.9126   6.9381   6.9418   7.0944   7.0963
     7.2376   7.2497   7.3016   7.3134   7.4827   7.5327   7.6774   7.6871
     7.6982   7.7080

     occupation numbers 
     1.0000   1.0000   1.0000   1.0000   1.0000   1.0000   1.0000   1.0000
     1.0000   1.0000   1.0000   1.0000   1.0000   1.0000   1.0000   1.0000
     1.0000   1.0000   1.0000   1.0000   1.0000   1.0000   1.0000   1.0000
     1.0000   1.0000   1.0000   1.0000   1.0000   1.0000   1.0000   1.0000
     1.0000   1.0000   1.0000   1.0000   1.0000   1.0000   1.0000   1.0000
     1.0000   1.0000   1.0000   1.0000   1.0000   1.0000   1.0000   1.0000
     1.0000   1.0000   1.0000   1.0000   1.0000   1.0000   1.0000   1.0000
     1.0000   1.0000   1.0000   1.0000   1.0000   1.0000   1.0000   1.0000
     1.0000   1.0000   1.0000   1.0000   1.0000   1.0000   1.0000   1.0000
     1.0000   1.0000   1.0000   1.0000   1.0000   1.0000   1.0000   1.0000
     1.0000   1.0000   1.0000   1.0000   1.0000   1.0000   1.0000   1.0000
     1.0000   1.0000   1.0000   1.0000   1.0000   1.0000   1.0000   1.0000
     1.0000   1.0000   1.0000   1.0000   1.0000   1.0000   1.0000   1.0000
     1.0000   1.0000   1.0000   1.0000   1.0000   1.0000   1.0000   1.0000
     1.0000   1.0000   1.0000   1.0000   1.0000   1.0000   1.0000   1.0000
     1.0000   1.0000   1.0000   1.0000   1.0000   1.0000   1.0000   1.0000
     1.0000   1.0000   1.0000   1.0000   1.0000   1.0000   1.0000   1.0000
     1.0000   1.0000

     highest occupied level (ev):     7.7080

!    total energy              =   -7140.43419346 Ry
     total all-electron energy =   -286038.500762 Ry
     estimated scf accuracy    <       0.00001682 Ry

     The total energy is the sum of the following terms:
     one-electron contribution =    -652.47207913 Ry
     hartree contribution      =     404.39764026 Ry
     xc contribution           =    -318.02606411 Ry
     ewald contribution        =    -672.20588499 Ry
     DFT-D3 Dispersion         =      -0.28928769 Ry
     Hubbard energy            =       0.03153585 Ry
     one-center paw contrib.   =   -5901.87005364 Ry
      -> PAW hartree energy AE =     162.13638207 Ry
      -> PAW hartree energy PS =    -163.23009786 Ry
      -> PAW xc energy AE      =    -103.86227793 Ry
      -> PAW xc energy PS      =      27.15961822 Ry
      -> total E_H with PAW    =     403.30392447 Ry
      -> total E_XC with PAW   =    -394.72872382 Ry

     total magnetization       =     0.00    -0.12     0.01 Bohr mag/cell
     absolute magnetization    =    10.74 Bohr mag/cell

     convergence has been achieved in  36 iterations

     Writing all to output data dir ./tmp/MnBi2Te4.save/
 
     init_run     :     55.29s CPU     58.25s WALL (       1 calls)
     electrons    :   5777.58s CPU   5928.36s WALL (       1 calls)

     Called by init_run:
     wfcinit      :     52.29s CPU     53.75s WALL (       1 calls)
     wfcinit:atom :      0.01s CPU      0.01s WALL (       6 calls)
     wfcinit:wfcr :     51.21s CPU     52.62s WALL (       6 calls)
     potinit      :      1.26s CPU      1.40s WALL (       1 calls)
     hinit0       :      0.95s CPU      2.18s WALL (       1 calls)

     Called by electrons:
     c_bands      :   4615.59s CPU   4738.39s WALL (      36 calls)
     sum_band     :   1093.12s CPU   1116.76s WALL (      36 calls)
     v_of_rho     :     21.03s CPU     23.53s WALL (      37 calls)
     v_h          :      0.67s CPU      0.69s WALL (      37 calls)
     v_xc         :     20.35s CPU     22.83s WALL (      37 calls)
     newd         :     24.93s CPU     25.83s WALL (      37 calls)
     PAW_pot      :     20.14s CPU     20.89s WALL (      37 calls)
     mix_rho      :      2.34s CPU      2.52s WALL (      36 calls)
     energy_dftd3 :      0.05s CPU      0.05s WALL (       1 calls)

     Called by c_bands:
     init_us_2    :      1.01s CPU      1.04s WALL (     444 calls)
     init_us_2:cp :      1.01s CPU      1.03s WALL (     444 calls)
     cegterg      :   4602.36s CPU   4724.87s WALL (     223 calls)

     Called by sum_band:
     sum_band:wei :      0.00s CPU      0.00s WALL (      36 calls)
     sum_band:loo :   1053.44s CPU   1075.42s WALL (      36 calls)
     sum_band:buf :      0.21s CPU      0.23s WALL (     216 calls)
     sum_band:ini :      0.50s CPU      0.50s WALL (     216 calls)
     sum_band:cal :      5.60s CPU      6.03s WALL (     216 calls)
     sum_band:bec :      2.98s CPU      3.01s WALL (     216 calls)
     addusdens    :     31.17s CPU     32.52s WALL (      36 calls)
                                        0.00s GPU  (      36 calls)
     addusd:skk   :      0.02s CPU      0.02s WALL (     144 calls)
                                        0.00s GPU  (     144 calls)

     Called by *egterg:
     cdiaghg      :     41.73s CPU     41.96s WALL (    2062 calls)
     cegterg:over :     15.87s CPU     16.55s WALL (    1839 calls)
     cegterg:upda :      8.39s CPU      8.51s WALL (    1839 calls)
     cegterg:last :     14.74s CPU     14.88s WALL (     617 calls)
     h_psi        :   4541.86s CPU   4663.60s WALL (    2068 calls)
     s_psi        :     18.20s CPU     18.34s WALL (    2074 calls)
     g_psi        :      0.29s CPU      0.30s WALL (    1839 calls)

     Called by h_psi:
     h_psi:calbec :     20.91s CPU     22.53s WALL (    2068 calls)
     vloc_psi     :   4489.47s CPU   4609.07s WALL (    2068 calls)
     add_vuspsi   :     17.80s CPU     18.01s WALL (    2068 calls)
     vhpsi        :     12.90s CPU     13.09s WALL (    2068 calls)

     General routines
     calbec       :     26.84s CPU     28.90s WALL (    2290 calls)
     fft          :      7.77s CPU      8.45s WALL (    1067 calls)
     ffts         :      0.86s CPU      0.95s WALL (     144 calls)
     fftw         :   2966.69s CPU   3082.41s WALL (  444036 calls)
     davcio       :      0.00s CPU      0.00s WALL (       6 calls)
 
     Parallel routines

     Hubbard U routines
     new_ns_nc    :      2.47s CPU      2.55s WALL (      36 calls)
     vhpsi        :     12.90s CPU     13.09s WALL (    2068 calls)

     PAW routines
     PAW_pot      :     20.14s CPU     20.89s WALL (      37 calls)
     PAW_symme    :      0.08s CPU      0.10s WALL (      73 calls)
 
     PWSCF        :      1h37m CPU      1h39m WALL

 
   This run was terminated on:  14:45:16  23Sep2025            

=------------------------------------------------------------------------------=
   JOB DONE.
=------------------------------------------------------------------------------=
