 
             +---------------------------------------------------+
             |                                                   |
             |                   WANNIER90                       |
             |                                                   |
             +---------------------------------------------------+
             |                                                   |
             |        Welcome to the Maximally-Localized         |
             |        Generalized Wannier Functions code         |
             |            http://www.wannier.org                 |
             |                                                   |
             |                                                   |
             |  Wannier90 Developer Group:                       |
             |    Giovanni Pizzi    (EPFL)                       |
             |    Valerio Vitale    (Cambridge)                  |
             |    David Vanderbilt  (Rutgers University)         |
             |    Nicola Marzari    (EPFL)                       |
             |    Ivo Souza         (Universidad del Pais Vasco) |
             |    Arash A. Mostofi  (Imperial College London)    |
             |    Jonathan R. Yates (University of Oxford)       |
             |                                                   |
             |  For the full list of Wannier90 3.x authors,      |
             |  please check the code documentation and the      |
             |  README on the GitHub page of the code            |
             |                                                   |
             |                                                   |
             |  Please cite                                      |
             |                                                   |
             |  [ref] "Wannier90 as a community code:            |
             |        new features and applications",            |
             |        G. Pizzi et al., J. Phys. Cond. Matt. 32,  |
             |        165902 (2020).                             |
             |        http://doi.org/10.1088/1361-648X/ab51ff    |
             |                                                   |
             |  in any publications arising from the use of      |
             |  this code. For the method please cite            |
             |                                                   |
             |  [ref] "Maximally Localized Generalised Wannier   |
             |         Functions for Composite Energy Bands"     |
             |         N. Marzari and D. Vanderbilt              |
             |         Phys. Rev. B 56 12847 (1997)              |
             |                                                   |
             |  [ref] "Maximally Localized Wannier Functions     |
             |         for Entangled Energy Bands"               |
             |         I. Souza, N. Marzari and D. Vanderbilt    |
             |         Phys. Rev. B 65 035109 (2001)             |
             |                                                   |
             |                                                   |
             | Copyright (c) 1996-2020                           |
             |        The Wannier90 Developer Group and          |
             |        individual contributors                    |
             |                                                   |
             |      Release: 3.1.0        5th March    2020      |
             |                                                   |
             | This program is free software; you can            |
             | redistribute it and/or modify it under the terms  |
             | of the GNU General Public License as published by |
             | the Free Software Foundation; either version 2 of |
             | the License, or (at your option) any later version|
             |                                                   |
             | This program is distributed in the hope that it   |
             | will be useful, but WITHOUT ANY WARRANTY; without |
             | even the implied warranty of MERCHANTABILITY or   |
             | FITNESS FOR A PARTICULAR PURPOSE. See the GNU     |
             | General Public License for more details.          |
             |                                                   |
             | You should have received a copy of the GNU General|
             | Public License along with this program; if not,   |
             | write to the Free Software Foundation, Inc.,      |
             | 675 Mass Ave, Cambridge, MA 02139, USA.           |
             |                                                   |
             +---------------------------------------------------+
             |    Execution started on 26Jan2026 at 23:27:07     |
             +---------------------------------------------------+
 
 ******************************************************************************
 * -> Using CODATA 2006 constant values                                       *
 *    (http://physics.nist.gov/cuu/Constants/index.html)                      *
 * -> Using Bohr value from CODATA                                            *
 ******************************************************************************
 

 Running in parallel on  48 CPUs

 
                                    ------
                                    SYSTEM
                                    ------
 
                              Lattice Vectors (Ang)
                    a_1     2.166809  -1.251015  27.284009
                    a_2     0.000000   2.502002  27.284009
                    a_3    -2.166809  -1.251015  27.284009
 
                   Unit Cell Volume:     443.75088  (Ang^3)
 
                        Reciprocal-Space Vectors (Ang^-1)
                    b_1     1.449871  -0.837085   0.076762
                    b_2     0.000000   1.674169   0.076763
                    b_3    -1.449871  -0.837085   0.076762
  
 *----------------------------------------------------------------------------*
 |   Site       Fractional Coordinate          Cartesian Coordinate (Ang)     |
 +----------------------------------------------------------------------------+
 | Mn   1   0.00000   0.00000   0.00000   |    0.00000   0.00000   0.00000    |
 | Mn   1   0.50000   0.50000   0.50000   |    0.00000  -0.00001  40.92601    |
 | Bi   1   0.21245   0.21245   0.21245   |    0.00000  -0.00001  17.38946    |
 | Bi   2   0.71245   0.71245   0.71245   |    0.00000  -0.00002  58.31548    |
 | Bi   3   0.28755   0.28755   0.28755   |    0.00000  -0.00001  23.53655    |
 | Bi   4   0.78755   0.78755   0.78755   |    0.00000  -0.00002  64.46256    |
 | Te   1   0.06668   0.06668   0.06668   |    0.00000  -0.00000   5.45789    |
 | Te   2   0.56668   0.56668   0.56668   |    0.00000  -0.00002  46.38391    |
 | Te   3   0.43332   0.43332   0.43332   |    0.00000  -0.00001  35.46812    |
 | Te   4   0.93332   0.93332   0.93332   |    0.00000  -0.00003  76.39413    |
 | Te   5   0.14703   0.14703   0.14703   |    0.00000  -0.00000  12.03470    |
 | Te   6   0.64703   0.64703   0.64703   |    0.00000  -0.00002  52.96072    |
 | Te   7   0.35297   0.35297   0.35297   |    0.00000  -0.00001  28.89131    |
 | Te   8   0.85297   0.85297   0.85297   |    0.00000  -0.00002  69.81732    |
 *----------------------------------------------------------------------------*
                                ------------
                                K-POINT GRID
                                ------------
  
             Grid size =  8 x  8 x  8      Total points =  512
  
  
 *---------------------------------- MAIN ------------------------------------*
 |  Number of Wannier Functions               :                92             |
 |  Number of Objective Wannier Functions     :                92             |
 |  Number of input Bloch states              :               240             |
 |  Output verbosity (1=low, 5=high)          :                 1             |
 |  Timing Level (1=low, 5=high)              :                 1             |
 |  Optimisation (0=memory, 3=speed)          :                 3             |
 |  Length Unit                               :               Ang             |
 |  Post-processing setup (write *.nnkp)      :                 F             |
 |  Using Gamma-only branch of algorithms     :                 F             |
 *----------------------------------------------------------------------------*
 *------------------------------- WANNIERISE ---------------------------------*
 |  Total number of iterations                :               100             |
 |  Number of CG steps before reset           :                 5             |
 |  Trial step length for line search         :             2.000             |
 |  Convergence tolerence                     :         0.100E-09             |
 |  Convergence window                        :                -1             |
 |  Iterations between writing output         :                 1             |
 |  Iterations between backing up to disk     :               100             |
 |  Write r^2_nm to file                      :                 F             |
 |  Write xyz WF centres to file              :                 T             |
 |  Write on-site energies <0n|H|0n> to file  :                 F             |
 |  Use guiding centre to control phases      :                 F             |
 |  Use phases for initial projections        :                 F             |
 *----------------------------------------------------------------------------*
 *------------------------------- DISENTANGLE --------------------------------*
 |  Using band disentanglement                :                 T             |
 |  Total number of iterations                :              5000             |
 |  Mixing ratio                              :             0.500             |
 |  Convergence tolerence                     :         1.000E-10             |
 |  Convergence window                        :                 3             |
 *----------------------------------------------------------------------------*
 *-------------------------------- PLOTTING ----------------------------------*
 |  Plotting interpolated bandstructure       :                 T             |
 |   Number of K-path sections                :                 5             |
 |   Divisions along first K-path section     :               100             |
 |   Output format                            :           gnuplot             |
 |   Output mode                              :               s-k             |
 *----------------------------------------------------------------------------*
 |   K-space path sections:                                                   |
 |    From: G       0.000  0.000  0.000     To: T       0.500  0.500  0.500   |
 |    From: T       0.500  0.500  0.500     To: P1      0.664  0.172  0.664   |
 |    From: P1      0.664  0.172  0.664     To: F       0.500  0.000  0.500   |
 |    From: F       0.500  0.000  0.500     To: G       0.000  0.000  0.000   |
 |    From: G       0.000  0.000  0.000     To: L       0.500  0.000  0.000   |
 *----------------------------------------------------------------------------*
 |  Plotting Hamiltonian in WF basis          :                 T             |
 *----------------------------------------------------------------------------*
 Time to read parameters        0.316 (sec)

 *---------------------------------- K-MESH ----------------------------------*
 +----------------------------------------------------------------------------+
 |                    Distance to Nearest-Neighbour Shells                    |
 |                    ------------------------------------                    |
 |          Shell             Distance (Ang^-1)          Multiplicity         |
 |          -----             -----------------          ------------         |
 |             1                   0.028786                      2            |
 |             2                   0.057572                      2            |
 |             3                   0.086358                      2            |
 |             4                   0.115144                      2            |
 |             5                   0.143930                      2            |
 |             6                   0.172716                      2            |
 |             7                   0.201502                      2            |
 |             8                   0.209491                      6            |
 |             9                   0.210149                      6            |
 |            10                   0.212761                      6            |
 |            11                   0.214700                      6            |
 |            12                   0.219786                      6            |
 |            13                   0.222905                      6            |
 |            14                   0.230288                      8            |
 |            15                   0.234382                      6            |
 |            16                   0.243627                      6            |
 |            17                   0.248677                      6            |
 |            18                   0.259074                      2            |
 |            19                   0.259546                      6            |
 |            20                   0.265335                      6            |
 |            21                   0.277546                      6            |
 |            22                   0.283941                      6            |
 |            23                   0.287860                      2            |
 |            24                   0.297248                      6            |
 |            25                   0.304138                      6            |
 |            26                   0.316646                      2            |
 |            27                   0.318337                      6            |
 |            28                   0.325629                      6            |
 |            29                   0.340555                      6            |
 |            30                   0.345432                      2            |
 |            31                   0.348175                      6            |
 |            32                   0.362468                      6            |
 |            33                   0.363609                     18            |
 |            34                   0.367011                     12            |
 |            35                   0.371584                      6            |
 |            36                   0.372613                     12            |
 +----------------------------------------------------------------------------+
 | The b-vectors are chosen automatically                                     |
 | The following shells are used:   1,  8                                     |
 +----------------------------------------------------------------------------+
 |                        Shell   # Nearest-Neighbours                        |
 |                        -----   --------------------                        |
 |                          1               2                                 |
 |                          8               6                                 |
 +----------------------------------------------------------------------------+
 | Completeness relation is fully satisfied [Eq. (B1), PRB 56, 12847 (1997)]  |
 +----------------------------------------------------------------------------+
 |                  b_k Vectors (Ang^-1) and Weights (Ang^2)                  |
 |                  ----------------------------------------                  |
 |            No.         b_k(x)      b_k(y)      b_k(z)        w_b           |
 |            ---        --------------------------------     --------        |
 |             1         0.000000    0.000000    0.028786   600.864703        |
 |             2         0.000000    0.000000   -0.028786   600.864703        |
 |             3        -0.181234   -0.104636    0.009595     7.611332        |
 |             4         0.000000    0.209271    0.009595     7.611332        |
 |             5         0.181234   -0.104636    0.009595     7.611332        |
 |             6         0.181234    0.104636   -0.009595     7.611332        |
 |             7        -0.181234    0.104636   -0.009595     7.611332        |
 |             8         0.000000   -0.209271   -0.009595     7.611332        |
 +----------------------------------------------------------------------------+
 |                           b_k Directions (Ang^-1)                          |
 |                           -----------------------                          |
 |            No.           x           y           z                         |
 |            ---        --------------------------------                     |
 |             1         0.000000    0.000000    0.028786                     |
 |             2        -0.181234   -0.104636    0.009595                     |
 |             3         0.000000    0.209271    0.009595                     |
 |             4         0.181234   -0.104636    0.009595                     |
 +----------------------------------------------------------------------------+
  
 Time to get kmesh              0.565 (sec)
 *============================================================================*
 |                              MEMORY ESTIMATE                               |
 |         Maximum RAM allocated during each phase of the calculation         |
 *============================================================================*
 |                        Disentanglement         4916.54 Mb                  |
 |                            Wannierise:         1511.32 Mb                  |
 |                          plot_wannier:         1511.32 Mb                  |
 *----------------------------------------------------------------------------*
  
 Starting a new Wannier90 calculation ...


 Reading overlaps from MnBi2Te4.mmn    :  Created on 25Jan2026 at  4:12:52

 Reading projections from MnBi2Te4.amn :  Created on 25Jan2026 at  3:42: 8

 Time to read overlaps        490.613 (sec)

 *------------------------------- DISENTANGLE --------------------------------*
 +----------------------------------------------------------------------------+
 |                              Energy  Windows                               |
 |                              ---------------                               |
 |                   Outer:   -7.00000  to   20.00000  (eV)                   |
 |                   Inner:    0.00000  to   10.00000  (eV)                   |
 +----------------------------------------------------------------------------+
   Number of target bands to extract:   92

                   Unitarised projection of Wannier functions                  
                   ------------------------------------------                  
   A_mn = <psi_m|g_n> --> S = A.A^+ --> U = S^-1/2.A
   In dis_project... done
   Using an inner window (linner = T)
   In dis_proj_froz... done

                   Extraction of optimally-connected subspace                  
                   ------------------------------------------                  
 +---------------------------------------------------------------------+<-- DIS
 |  Iter     Omega_I(i-1)      Omega_I(i)      Delta (frac.)    Time   |<-- DIS
 +---------------------------------------------------------------------+<-- DIS
       1     432.57061272     390.84574964       1.068E-01      0.00    <-- DIS
       2     388.79851887     372.93077124       4.255E-02      3.04    <-- DIS
       3     377.42264785     362.39707651       4.146E-02      6.11    <-- DIS
       4     366.49769827     354.00783903       3.528E-02      9.18    <-- DIS
       5     357.28263363     347.02757169       2.955E-02     12.17    <-- DIS
       6     349.59534156     341.07344391       2.499E-02     15.19    <-- DIS
       7     343.10451640     335.89886081       2.145E-02     18.26    <-- DIS
       8     337.53434921     331.33499357       1.871E-02     21.32    <-- DIS
       9     332.67904414     327.26168330       1.655E-02     24.46    <-- DIS
      10     328.38836365     323.59071053       1.483E-02     27.47    <-- DIS
      11     324.55224472     320.25558433       1.342E-02     30.47    <-- DIS
      12     321.08898202     317.20504855       1.224E-02     33.52    <-- DIS
      13     317.93686890     314.39880964       1.125E-02     36.55    <-- DIS
      14     315.04843358     311.80464275       1.040E-02     39.63    <-- DIS
      15     312.38648142     309.39638118       9.664E-03     42.73    <-- DIS
      16     309.92136082     307.15248772       9.015E-03     45.79    <-- DIS
      17     307.62905279     305.05501928       8.438E-03     48.84    <-- DIS
      18     305.48981675     303.08886316       7.922E-03     51.88    <-- DIS
      19     303.48721532     301.24116459       7.456E-03     54.96    <-- DIS
      20     301.60740066     299.50089148       7.033E-03     58.02    <-- DIS
      21     299.83858382     297.85849902       6.648E-03     61.09    <-- DIS
      22     298.17063416     296.30566822       6.294E-03     64.14    <-- DIS
      23     296.59477251     294.83509965       5.968E-03     67.19    <-- DIS
      24     295.10333306     293.44034914       5.667E-03     70.22    <-- DIS
      25     293.68957624     292.11569560       5.388E-03     73.28    <-- DIS
      26     292.34754004     290.85603377       5.128E-03     76.35    <-- DIS
      27     291.07192047     289.65678637       4.886E-03     79.46    <-- DIS
      28     289.85797477     288.51383169       4.659E-03     82.52    <-- DIS
      29     288.70144213     287.42344340       4.446E-03     85.53    <-- DIS
      30     287.59847821     286.38224015       4.247E-03     88.57    <-- DIS
      31     286.54560084     285.38714321       4.059E-03     91.68    <-- DIS
      32     285.53964440     284.43534046       3.882E-03     94.67    <-- DIS
      33     284.57772146     283.52425581       3.716E-03     97.67    <-- DIS
      34     283.65719018     282.65152295       3.558E-03    100.68    <-- DIS
      35     282.77562650     281.81496273       3.409E-03    103.66    <-- DIS
      36     281.93080029     281.01256364       3.268E-03    106.65    <-- DIS
      37     281.12065477     280.24246476       3.134E-03    109.65    <-- DIS
      38     280.34328869     279.50294098       3.007E-03    112.62    <-- DIS
      39     279.59694076     278.79238998       2.886E-03    115.62    <-- DIS
      40     278.87997615     278.10932077       2.771E-03    118.57    <-- DIS
      41     278.19087449     277.45234359       2.662E-03    121.49    <-- DIS
      42     277.52821942     276.82016098       2.558E-03    124.43    <-- DIS
      43     276.89068927     276.21155980       2.459E-03    127.37    <-- DIS
      44     276.27704884     275.62540415       2.364E-03    130.30    <-- DIS
      45     275.68614205     275.06062899       2.274E-03    133.29    <-- DIS
      46     275.11688535     274.51623450       2.188E-03    136.21    <-- DIS
      47     274.56826192     273.99128092       2.106E-03    139.14    <-- DIS
      48     274.03931630     273.48488394       2.027E-03    142.07    <-- DIS
      49     273.52914973     272.99621054       1.952E-03    145.00    <-- DIS
      50     273.03691580     272.52447519       1.880E-03    147.94    <-- DIS
      51     272.56181657     272.06893646       1.812E-03    150.98    <-- DIS
      52     272.10309908     271.62889383       1.746E-03    153.95    <-- DIS
      53     271.66005211     271.20368492       1.683E-03    156.92    <-- DIS
      54     271.23200328     270.79268283       1.622E-03    159.86    <-- DIS
      55     270.81831640     270.39529378       1.564E-03    162.82    <-- DIS
      56     270.41838900     270.01095494       1.509E-03    165.79    <-- DIS
      57     270.03165011     269.63913240       1.456E-03    168.71    <-- DIS
      58     269.65755822     269.27931934       1.405E-03    171.60    <-- DIS
      59     269.29559938     268.93103433       1.356E-03    174.56    <-- DIS
      60     268.94528547     268.59381978       1.309E-03    177.47    <-- DIS
      61     268.60615262     268.26724043       1.263E-03    180.45    <-- DIS
      62     268.27775968     267.95088209       1.220E-03    183.40    <-- DIS
      63     267.95968690     267.64435032       1.178E-03    186.35    <-- DIS
      64     267.65153463     267.34726935       1.138E-03    189.39    <-- DIS
      65     267.35292215     267.05928095       1.100E-03    192.40    <-- DIS
      66     267.06348661     266.78004344       1.062E-03    195.36    <-- DIS
      67     266.78288197     266.50923080       1.027E-03    198.36    <-- DIS
      68     266.51077806     266.24653177       9.925E-04    201.34    <-- DIS
      69     266.24685972     265.99164906       9.595E-04    204.29    <-- DIS
      70     265.99082598     265.74429856       9.277E-04    207.28    <-- DIS
      71     265.74238926     265.50420870       8.971E-04    210.19    <-- DIS
      72     265.50127468     265.27111973       8.676E-04    213.11    <-- DIS
      73     265.26721938     265.04478311       8.392E-04    216.11    <-- DIS
      74     265.03997188     264.82496097       8.119E-04    219.07    <-- DIS
      75     264.81929150     264.61142553       7.856E-04    222.04    <-- DIS
      76     264.60494782     264.40395858       7.602E-04    225.05    <-- DIS
      77     264.39672013     264.20235104       7.357E-04    228.03    <-- DIS
      78     264.19439697     264.00640247       7.121E-04    230.98    <-- DIS
      79     263.99777564     263.81592066       6.893E-04    233.90    <-- DIS
      80     263.80666179     263.63072123       6.674E-04    236.78    <-- DIS
      81     263.62086903     263.45062725       6.462E-04    239.62    <-- DIS
      82     263.44021848     263.27546888       6.258E-04    242.52    <-- DIS
      83     263.26453850     263.10508305       6.061E-04    245.38    <-- DIS
      84     263.09366426     262.93931311       5.870E-04    248.24    <-- DIS
      85     262.92743747     262.77800857       5.687E-04    251.07    <-- DIS
      86     262.76570608     262.62102478       5.509E-04    253.88    <-- DIS
      87     262.60832394     262.46822268       5.338E-04    256.69    <-- DIS
      88     262.45515060     262.31946856       5.172E-04    259.46    <-- DIS
      89     262.30605098     262.17463378       5.013E-04    262.30    <-- DIS
      90     262.16089517     262.03359457       4.858E-04    265.12    <-- DIS
      91     262.01955820     261.89623183       4.709E-04    267.93    <-- DIS
      92     261.88191979     261.76243087       4.565E-04    270.75    <-- DIS
      93     261.74786418     261.63208128       4.425E-04    273.58    <-- DIS
      94     261.61727988     261.50507670       4.291E-04    276.40    <-- DIS
      95     261.49005956     261.38131465       4.160E-04    279.30    <-- DIS
      96     261.36609979     261.26069639       4.034E-04    282.13    <-- DIS
      97     261.24530093     261.14312674       3.913E-04    284.96    <-- DIS
      98     261.12756693     261.02851393       3.795E-04    287.78    <-- DIS
      99     261.01280523     260.91676947       3.681E-04    290.61    <-- DIS
     100     260.90092653     260.80780799       3.570E-04    293.43    <-- DIS
     101     260.79184474     260.70154713       3.464E-04    296.33    <-- DIS
     102     260.68547680     260.59790743       3.360E-04    299.13    <-- DIS
     103     260.58174256     260.49681216       3.260E-04    301.94    <-- DIS
     104     260.48056467     260.39818728       3.164E-04    304.70    <-- DIS
     105     260.38186846     260.30196125       3.070E-04    307.51    <-- DIS
     106     260.28558184     260.20806501       2.979E-04    310.29    <-- DIS
     107     260.19163518     260.11643184       2.891E-04    313.09    <-- DIS
     108     260.09996124     260.02699726       2.806E-04    315.93    <-- DIS
     109     260.01049502     259.93969895       2.724E-04    318.71    <-- DIS
     110     259.92317375     259.85447669       2.644E-04    321.50    <-- DIS
     111     259.83793675     259.77127225       2.566E-04    324.30    <-- DIS
     112     259.75472533     259.69002931       2.491E-04    327.11    <-- DIS
     113     259.67348279     259.61069341       2.419E-04    329.91    <-- DIS
     114     259.59415427     259.53321188       2.348E-04    332.72    <-- DIS
     115     259.51668670     259.45753372       2.280E-04    335.48    <-- DIS
     116     259.44102876     259.38360962       2.214E-04    338.25    <-- DIS
     117     259.36713077     259.31139183       2.149E-04    340.99    <-- DIS
     118     259.29494466     259.24083413       2.087E-04    343.73    <-- DIS
     119     259.22442391     259.17189176       2.027E-04    346.51    <-- DIS
     120     259.15552346     259.10452138       1.968E-04    349.31    <-- DIS
     121     259.08819969     259.03868102       1.912E-04    352.15    <-- DIS
     122     259.02241037     258.97433002       1.857E-04    354.92    <-- DIS
     123     258.95811456     258.91142897       1.803E-04    357.73    <-- DIS
     124     258.89527262     258.84993969       1.751E-04    360.54    <-- DIS
     125     258.83384616     258.78982517       1.701E-04    363.32    <-- DIS
     126     258.77379792     258.73104956       1.652E-04    366.12    <-- DIS
     127     258.71509185     258.67357806       1.605E-04    368.96    <-- DIS
     128     258.65769295     258.61737695       1.559E-04    371.77    <-- DIS
     129     258.60156730     258.56241354       1.514E-04    374.58    <-- DIS
     130     258.54668204     258.50865609       1.471E-04    377.39    <-- DIS
     131     258.49300524     258.45607382       1.429E-04    380.18    <-- DIS
     132     258.44050598     258.40463689       1.388E-04    382.99    <-- DIS
     133     258.38915424     258.35431630       1.348E-04    385.80    <-- DIS
     134     258.33892088     258.30508394       1.310E-04    388.65    <-- DIS
     135     258.28977765     258.25691251       1.273E-04    391.46    <-- DIS
     136     258.24169709     258.20977551       1.236E-04    394.29    <-- DIS
     137     258.19465259     258.16364719       1.201E-04    397.12    <-- DIS
     138     258.14861829     258.11850258       1.167E-04    399.96    <-- DIS
     139     258.10356907     258.07431739       1.133E-04    402.79    <-- DIS
     140     258.05948055     258.03106807       1.101E-04    405.68    <-- DIS
     141     258.01632906     257.98873169       1.070E-04    408.52    <-- DIS
     142     257.97409158     257.94728601       1.039E-04    411.35    <-- DIS
     143     257.93274577     257.90670940       1.010E-04    414.20    <-- DIS
     144     257.89226991     257.86698085       9.807E-05    417.09    <-- DIS
     145     257.85264289     257.82807993       9.527E-05    419.95    <-- DIS
     146     257.81384420     257.78998677       9.255E-05    422.85    <-- DIS
     147     257.77585391     257.75268207       8.990E-05    425.68    <-- DIS
     148     257.73865263     257.71614706       8.733E-05    428.52    <-- DIS
     149     257.70222151     257.68036348       8.483E-05    431.36    <-- DIS
     150     257.66654222     257.64531357       8.239E-05    434.30    <-- DIS
     151     257.63159696     257.61098006       8.003E-05    437.23    <-- DIS
     152     257.59736837     257.57734613       7.773E-05    440.16    <-- DIS
     153     257.56383961     257.54439546       7.550E-05    443.11    <-- DIS
     154     257.53099425     257.51211211       7.333E-05    446.05    <-- DIS
     155     257.49881635     257.48048062       7.121E-05    448.95    <-- DIS
     156     257.46729036     257.44948591       6.916E-05    451.88    <-- DIS
     157     257.43640118     257.41911332       6.716E-05    454.78    <-- DIS
     158     257.40613409     257.38934856       6.521E-05    457.69    <-- DIS
     159     257.37647476     257.36017774       6.332E-05    460.66    <-- DIS
     160     257.34740926     257.33158731       6.148E-05    463.57    <-- DIS
     161     257.31892401     257.30356410       5.970E-05    466.48    <-- DIS
     162     257.29100579     257.27609526       5.796E-05    469.35    <-- DIS
     163     257.26364173     257.24916830       5.626E-05    472.30    <-- DIS
     164     257.23681928     257.22277102       5.462E-05    475.21    <-- DIS
     165     257.21052625     257.19689156       5.301E-05    478.20    <-- DIS
     166     257.18475072     257.17151836       5.145E-05    481.13    <-- DIS
     167     257.15948111     257.14664014       4.994E-05    484.06    <-- DIS
     168     257.13470613     257.12224594       4.846E-05    487.00    <-- DIS
     169     257.11041476     257.09832504       4.702E-05    489.91    <-- DIS
     170     257.08659630     257.07486702       4.563E-05    492.83    <-- DIS
     171     257.06324027     257.05186171       4.427E-05    495.80    <-- DIS
     172     257.04033650     257.02929919       4.294E-05    498.72    <-- DIS
     173     257.01787506     257.00716980       4.165E-05    501.65    <-- DIS
     174     256.99584625     256.98546411       4.040E-05    504.60    <-- DIS
     175     256.97424064     256.96417294       3.918E-05    507.58    <-- DIS
     176     256.95304902     256.94328731       3.799E-05    510.56    <-- DIS
     177     256.93226241     256.92279850       3.684E-05    513.57    <-- DIS
     178     256.91187206     256.90269797       3.571E-05    516.54    <-- DIS
     179     256.89186943     256.88297739       3.462E-05    519.48    <-- DIS
     180     256.87224618     256.86362866       3.355E-05    522.42    <-- DIS
     181     256.85299419     256.84464386       3.251E-05    525.38    <-- DIS
     182     256.83410553     256.82601526       3.150E-05    528.36    <-- DIS
     183     256.81557246     256.80773531       3.052E-05    531.32    <-- DIS
     184     256.79738743     256.78979667       2.956E-05    534.24    <-- DIS
     185     256.77954308     256.77219214       2.863E-05    537.17    <-- DIS
     186     256.76203221     256.75491471       2.772E-05    540.09    <-- DIS
     187     256.74484781     256.73795754       2.684E-05    543.01    <-- DIS
     188     256.72798303     256.72131396       2.598E-05    545.95    <-- DIS
     189     256.71143117     256.70497742       2.514E-05    549.22    <-- DIS
     190     256.69518571     256.68894157       2.433E-05    552.21    <-- DIS
     191     256.67924028     256.67320018       2.353E-05    555.16    <-- DIS
     192     256.66358864     256.65774718       2.276E-05    558.12    <-- DIS
     193     256.64822473     256.64257663       2.201E-05    561.08    <-- DIS
     194     256.63314260     256.62768274       2.128E-05    564.07    <-- DIS
     195     256.61833646     256.61305985       2.056E-05    567.35    <-- DIS
     196     256.60380064     256.59870243       1.987E-05    570.34    <-- DIS
     197     256.58952961     256.58460508       1.919E-05    573.30    <-- DIS
     198     256.57551797     256.57076251       1.853E-05    576.29    <-- DIS
     199     256.56176044     256.55716958       1.789E-05    579.24    <-- DIS
     200     256.54825186     256.54382123       1.727E-05    582.22    <-- DIS
     201     256.53498719     256.53071255       1.666E-05    585.58    <-- DIS
     202     256.52196151     256.51783873       1.607E-05    588.54    <-- DIS
     203     256.50917000     256.50519505       1.550E-05    591.47    <-- DIS
     204     256.49660795     256.49277692       1.494E-05    594.35    <-- DIS
     205     256.48427078     256.48057984       1.439E-05    597.24    <-- DIS
     206     256.47215398     256.46859943       1.386E-05    600.14    <-- DIS
     207     256.46025316     256.45683138       1.334E-05    603.01    <-- DIS
     208     256.44856404     256.44527150       1.284E-05    605.96    <-- DIS
     209     256.43708240     256.43391568       1.235E-05    608.85    <-- DIS
     210     256.42580416     256.42275990       1.187E-05    611.74    <-- DIS
     211     256.41472528     256.41180023       1.141E-05    614.64    <-- DIS
     212     256.40384185     256.40103284       1.096E-05    617.51    <-- DIS
     213     256.39315003     256.39045397       1.052E-05    620.42    <-- DIS
     214     256.38264606     256.38005994       1.009E-05    623.44    <-- DIS
     215     256.37232628     256.36984717       9.670E-06    626.38    <-- DIS
     216     256.36218709     256.35981213       9.264E-06    629.35    <-- DIS
     217     256.35222498     256.34995139       8.869E-06    632.29    <-- DIS
     218     256.34243652     256.34026158       8.485E-06    635.26    <-- DIS
     219     256.33281834     256.33073941       8.110E-06    638.22    <-- DIS
     220     256.32336715     256.32138166       7.746E-06    641.21    <-- DIS
     221     256.31407974     256.31218518       7.392E-06    644.17    <-- DIS
     222     256.30495296     256.30314689       7.047E-06    647.11    <-- DIS
     223     256.29598374     256.29426376       6.711E-06    650.05    <-- DIS
     224     256.28716904     256.28553285       6.384E-06    652.99    <-- DIS
     225     256.27850593     256.27695126       6.066E-06    655.98    <-- DIS
     226     256.26999151     256.26851616       5.757E-06    659.01    <-- DIS
     227     256.26162297     256.26022478       5.456E-06    662.02    <-- DIS
     228     256.25339753     256.25207441       5.163E-06    665.01    <-- DIS
     229     256.24531249     256.24406240       4.879E-06    667.96    <-- DIS
     230     256.23736520     256.23618614       4.601E-06    670.97    <-- DIS
     231     256.22955305     256.22844310       4.332E-06    673.90    <-- DIS
     232     256.22187352     256.22083078       4.070E-06    676.91    <-- DIS
     233     256.21432412     256.21334674       3.815E-06    679.91    <-- DIS
     234     256.20690240     256.20598859       3.567E-06    682.87    <-- DIS
     235     256.19960599     256.19875400       3.326E-06    685.84    <-- DIS
     236     256.19243255     256.19164067       3.091E-06    688.80    <-- DIS
     237     256.18537980     256.18464636       2.863E-06    691.80    <-- DIS
     238     256.17844548     256.17776887       2.641E-06    694.81    <-- DIS
     239     256.17162742     256.17100606       2.426E-06    697.79    <-- DIS
     240     256.16492347     256.16435580       2.216E-06    700.76    <-- DIS
     241     256.15833151     256.15781604       2.012E-06    703.72    <-- DIS
     242     256.15184949     256.15138476       1.814E-06    706.70    <-- DIS
     243     256.14547539     256.14505996       1.622E-06    709.66    <-- DIS
     244     256.13920723     256.13883971       1.435E-06    712.66    <-- DIS
     245     256.13304307     256.13272211       1.253E-06    715.64    <-- DIS
     246     256.12698102     256.12670529       1.077E-06    718.59    <-- DIS
     247     256.12101922     256.12078742       9.050E-07    721.55    <-- DIS
     248     256.11515584     256.11496672       7.384E-07    724.51    <-- DIS
     249     256.10938910     256.10924143       5.766E-07    727.47    <-- DIS
     250     256.10371724     256.10360983       4.194E-07    730.52    <-- DIS
     251     256.09813856     256.09807024       2.668E-07    733.51    <-- DIS
     252     256.09265137     256.09262100       1.186E-07    736.51    <-- DIS
     253     256.08725403     256.08726050      -2.526E-08    739.52    <-- DIS
     254     256.08194492     256.08198715      -1.649E-07    742.55    <-- DIS
     255     256.07672246     256.07679939      -3.004E-07    745.56    <-- DIS
     256     256.07158509     256.07169570      -4.319E-07    748.64    <-- DIS
     257     256.06653131     256.06667459      -5.595E-07    751.66    <-- DIS
     258     256.06155961     256.06173459      -6.833E-07    754.68    <-- DIS
     259     256.05666854     256.05687426      -8.034E-07    757.69    <-- DIS
     260     256.05185667     256.05209220      -9.198E-07    760.71    <-- DIS
     261     256.04712259     256.04738702      -1.033E-06    763.75    <-- DIS
     262     256.04246492     256.04275737      -1.142E-06    766.85    <-- DIS
     263     256.03788231     256.03820193      -1.248E-06    769.88    <-- DIS
     264     256.03337345     256.03371938      -1.351E-06    772.86    <-- DIS
     265     256.02893703     256.02930846      -1.451E-06    775.82    <-- DIS
     266     256.02457178     256.02496791      -1.547E-06    778.81    <-- DIS
     267     256.02027646     256.02069651      -1.641E-06    781.77    <-- DIS
     268     256.01604983     256.01649304      -1.731E-06    784.75    <-- DIS
     269     256.01189070     256.01235633      -1.819E-06    787.65    <-- DIS
     270     256.00779789     256.00828522      -1.904E-06    790.59    <-- DIS
     271     256.00377025     256.00427857      -1.986E-06    793.55    <-- DIS
     272     255.99980664     256.00033527      -2.065E-06    796.43    <-- DIS
     273     255.99590595     255.99645423      -2.142E-06    799.35    <-- DIS
     274     255.99206710     255.99263436      -2.216E-06    802.66    <-- DIS
     275     255.98828901     255.98887462      -2.288E-06    805.57    <-- DIS
     276     255.98457064     255.98517397      -2.357E-06    808.47    <-- DIS
     277     255.98091095     255.98153141      -2.424E-06    811.37    <-- DIS
     278     255.97730894     255.97794593      -2.488E-06    814.23    <-- DIS
     279     255.97376362     255.97441657      -2.551E-06    817.15    <-- DIS
     280     255.97027401     255.97094236      -2.611E-06    820.01    <-- DIS
     281     255.96683916     255.96752236      -2.669E-06    822.95    <-- DIS
     282     255.96345814     255.96415566      -2.725E-06    825.86    <-- DIS
     283     255.96013002     255.96084135      -2.779E-06    828.76    <-- DIS
     284     255.95685392     255.95757854      -2.831E-06    831.64    <-- DIS
     285     255.95362893     255.95436635      -2.881E-06    834.50    <-- DIS
     286     255.95045420     255.95120394      -2.929E-06    837.46    <-- DIS
     287     255.94732888     255.94809047      -2.976E-06    840.40    <-- DIS
     288     255.94425212     255.94502511      -3.020E-06    843.34    <-- DIS
     289     255.94122311     255.94200705      -3.063E-06    846.26    <-- DIS
     290     255.93824104     255.93903550      -3.104E-06    849.20    <-- DIS
     291     255.93530513     255.93610968      -3.144E-06    852.13    <-- DIS
     292     255.93241459     255.93322882      -3.181E-06    855.08    <-- DIS
     293     255.92956867     255.93039218      -3.218E-06    858.11    <-- DIS
     294     255.92676661     255.92759901      -3.252E-06    861.08    <-- DIS
     295     255.92400769     255.92484860      -3.286E-06    864.03    <-- DIS
     296     255.92129119     255.92214023      -3.318E-06    867.02    <-- DIS
     297     255.91861639     255.91947321      -3.348E-06    869.98    <-- DIS
     298     255.91598260     255.91684684      -3.377E-06    872.95    <-- DIS
     299     255.91338914     255.91426046      -3.405E-06    875.98    <-- DIS
     300     255.91083535     255.91171341      -3.431E-06    878.97    <-- DIS
     301     255.90832056     255.90920504      -3.456E-06    881.95    <-- DIS
     302     255.90584412     255.90673470      -3.480E-06    884.94    <-- DIS
     303     255.90340542     255.90430179      -3.503E-06    887.92    <-- DIS
     304     255.90100381     255.90190567      -3.524E-06    890.93    <-- DIS
     305     255.89863870     255.89954575      -3.545E-06    893.97    <-- DIS
     306     255.89630948     255.89722144      -3.564E-06    896.97    <-- DIS
     307     255.89401556     255.89493216      -3.582E-06    899.96    <-- DIS
     308     255.89175636     255.89267732      -3.599E-06    902.89    <-- DIS
     309     255.88953132     255.89045638      -3.615E-06    905.79    <-- DIS
     310     255.88733987     255.88826877      -3.630E-06    908.70    <-- DIS
     311     255.88518147     255.88611397      -3.644E-06    911.62    <-- DIS
     312     255.88305558     255.88399143      -3.657E-06    914.49    <-- DIS
     313     255.88096168     255.88190063      -3.669E-06    917.35    <-- DIS
     314     255.87889923     255.87984106      -3.681E-06    920.22    <-- DIS
     315     255.87686773     255.87781222      -3.691E-06    923.07    <-- DIS
     316     255.87486668     255.87581361      -3.701E-06    925.95    <-- DIS
     317     255.87289559     255.87384474      -3.709E-06    928.82    <-- DIS
     318     255.87095396     255.87190514      -3.717E-06    931.73    <-- DIS
     319     255.86904134     255.86999433      -3.725E-06    934.59    <-- DIS
     320     255.86715724     255.86811185      -3.731E-06    937.43    <-- DIS
     321     255.86530121     255.86625726      -3.737E-06    940.29    <-- DIS
     322     255.86347280     255.86443009      -3.741E-06    943.16    <-- DIS
     323     255.86167156     255.86262993      -3.746E-06    946.03    <-- DIS
     324     255.85989707     255.86085633      -3.749E-06    948.94    <-- DIS
     325     255.85814889     255.85910887      -3.752E-06    951.81    <-- DIS
     326     255.85642660     255.85738713      -3.754E-06    954.66    <-- DIS
     327     255.85472978     255.85569072      -3.756E-06    957.53    <-- DIS
     328     255.85305804     255.85401922      -3.757E-06    960.36    <-- DIS
     329     255.85141098     255.85237224      -3.757E-06    963.24    <-- DIS
     330     255.84978819     255.85074940      -3.757E-06    966.16    <-- DIS
     331     255.84818931     255.84915031      -3.756E-06    969.01    <-- DIS
     332     255.84661393     255.84757460      -3.755E-06    971.87    <-- DIS
     333     255.84506171     255.84602190      -3.753E-06    974.76    <-- DIS
     334     255.84353226     255.84449184      -3.751E-06    977.69    <-- DIS
     335     255.84202523     255.84298408      -3.748E-06    980.65    <-- DIS
     336     255.84054027     255.84149826      -3.744E-06    983.67    <-- DIS
     337     255.83907703     255.84003405      -3.741E-06    986.54    <-- DIS
     338     255.83763517     255.83859109      -3.736E-06    989.47    <-- DIS
     339     255.83621435     255.83716906      -3.732E-06    992.39    <-- DIS
     340     255.83481423     255.83576763      -3.727E-06    995.30    <-- DIS
     341     255.83343451     255.83438648      -3.721E-06    998.21    <-- DIS
     342     255.83207486     255.83302530      -3.715E-06   1001.09    <-- DIS
     343     255.83073496     255.83168378      -3.709E-06   1004.06    <-- DIS
     344     255.82941450     255.83036160      -3.702E-06   1007.00    <-- DIS
     345     255.82811319     255.82905848      -3.695E-06   1009.85    <-- DIS
     346     255.82683073     255.82777411      -3.688E-06   1012.83    <-- DIS
     347     255.82556682     255.82650820      -3.680E-06   1015.81    <-- DIS
     348     255.82432118     255.82526048      -3.672E-06   1018.73    <-- DIS
     349     255.82309351     255.82403065      -3.663E-06   1021.71    <-- DIS
     350     255.82188355     255.82281845      -3.654E-06   1024.64    <-- DIS
     351     255.82069102     255.82162360      -3.645E-06   1027.55    <-- DIS
     352     255.81951565     255.82044584      -3.636E-06   1030.43    <-- DIS
     353     255.81835718     255.81928490      -3.626E-06   1033.32    <-- DIS
     354     255.81721534     255.81814052      -3.617E-06   1036.27    <-- DIS
     355     255.81608988     255.81701246      -3.606E-06   1039.30    <-- DIS
     356     255.81498055     255.81590046      -3.596E-06   1042.27    <-- DIS
     357     255.81388710     255.81480428      -3.585E-06   1045.22    <-- DIS
     358     255.81280929     255.81372367      -3.574E-06   1048.21    <-- DIS
     359     255.81174687     255.81265840      -3.563E-06   1051.23    <-- DIS
     360     255.81069962     255.81160824      -3.552E-06   1054.22    <-- DIS
     361     255.80966730     255.81057296      -3.540E-06   1057.16    <-- DIS
     362     255.80864968     255.80955232      -3.529E-06   1060.07    <-- DIS
     363     255.80764653     255.80854611      -3.517E-06   1063.00    <-- DIS
     364     255.80665765     255.80755411      -3.504E-06   1065.88    <-- DIS
     365     255.80568281     255.80657611      -3.492E-06   1068.80    <-- DIS
     366     255.80472179     255.80561189      -3.480E-06   1071.72    <-- DIS
     367     255.80377440     255.80466124      -3.467E-06   1074.69    <-- DIS
     368     255.80284041     255.80372397      -3.454E-06   1077.49    <-- DIS
     369     255.80191964     255.80279986      -3.441E-06   1080.37    <-- DIS
     370     255.80101187     255.80188872      -3.428E-06   1083.18    <-- DIS
     371     255.80011692     255.80099036      -3.415E-06   1085.96    <-- DIS
     372     255.79923459     255.80010459      -3.401E-06   1088.78    <-- DIS
     373     255.79836469     255.79923121      -3.388E-06   1091.60    <-- DIS
     374     255.79750703     255.79837004      -3.374E-06   1094.46    <-- DIS
     375     255.79666143     255.79752090      -3.360E-06   1097.27    <-- DIS
     376     255.79582771     255.79668361      -3.346E-06   1100.04    <-- DIS
     377     255.79500568     255.79585799      -3.332E-06   1102.86    <-- DIS
     378     255.79419518     255.79504387      -3.318E-06   1105.65    <-- DIS
     379     255.79339604     255.79424108      -3.304E-06   1108.45    <-- DIS
     380     255.79260808     255.79344944      -3.289E-06   1111.30    <-- DIS
     381     255.79183113     255.79266880      -3.275E-06   1114.09    <-- DIS
     382     255.79106503     255.79189898      -3.260E-06   1116.88    <-- DIS
     383     255.79030962     255.79113984      -3.246E-06   1119.67    <-- DIS
     384     255.78956475     255.79039120      -3.231E-06   1122.44    <-- DIS
     385     255.78883025     255.78965293      -3.216E-06   1125.23    <-- DIS
     386     255.78810597     255.78892485      -3.201E-06   1128.01    <-- DIS
     387     255.78739175     255.78820683      -3.187E-06   1130.84    <-- DIS
     388     255.78668746     255.78749871      -3.172E-06   1133.63    <-- DIS
     389     255.78599294     255.78680035      -3.157E-06   1136.42    <-- DIS
     390     255.78530805     255.78611161      -3.142E-06   1139.25    <-- DIS
     391     255.78463265     255.78543234      -3.126E-06   1142.09    <-- DIS
     392     255.78396659     255.78476240      -3.111E-06   1144.93    <-- DIS
     393     255.78330974     255.78410166      -3.096E-06   1147.81    <-- DIS
     394     255.78266196     255.78344999      -3.081E-06   1150.75    <-- DIS
     395     255.78202312     255.78280725      -3.066E-06   1153.63    <-- DIS
     396     255.78139310     255.78217331      -3.050E-06   1156.50    <-- DIS
     397     255.78077175     255.78154804      -3.035E-06   1159.36    <-- DIS
     398     255.78015895     255.78093131      -3.020E-06   1162.25    <-- DIS
     399     255.77955458     255.78032301      -3.004E-06   1165.13    <-- DIS
     400     255.77895851     255.77972301      -2.989E-06   1168.42    <-- DIS
     401     255.77837063     255.77913118      -2.973E-06   1171.28    <-- DIS
     402     255.77779081     255.77854741      -2.958E-06   1174.15    <-- DIS
     403     255.77721893     255.77797159      -2.943E-06   1177.03    <-- DIS
     404     255.77665488     255.77740359      -2.927E-06   1179.90    <-- DIS
     405     255.77609855     255.77684331      -2.912E-06   1182.79    <-- DIS
     406     255.77554983     255.77629063      -2.896E-06   1185.72    <-- DIS
     407     255.77500859     255.77574545      -2.881E-06   1188.67    <-- DIS
     408     255.77447475     255.77520765      -2.865E-06   1191.54    <-- DIS
     409     255.77394817     255.77467712      -2.850E-06   1194.42    <-- DIS
     410     255.77342878     255.77415378      -2.835E-06   1197.30    <-- DIS
     411     255.77291645     255.77363750      -2.819E-06   1200.23    <-- DIS
     412     255.77241108     255.77312819      -2.804E-06   1203.14    <-- DIS
     413     255.77191258     255.77262575      -2.788E-06   1206.16    <-- DIS
     414     255.77142085     255.77213008      -2.773E-06   1209.13    <-- DIS
     415     255.77093579     255.77164108      -2.758E-06   1212.10    <-- DIS
     416     255.77045730     255.77115867      -2.742E-06   1215.05    <-- DIS
     417     255.76998529     255.77068273      -2.727E-06   1218.04    <-- DIS
     418     255.76951967     255.77021319      -2.711E-06   1221.02    <-- DIS
     419     255.76906034     255.76974995      -2.696E-06   1224.07    <-- DIS
     420     255.76860721     255.76929292      -2.681E-06   1227.06    <-- DIS
     421     255.76816020     255.76884201      -2.666E-06   1230.05    <-- DIS
     422     255.76771922     255.76839713      -2.650E-06   1233.05    <-- DIS
     423     255.76728418     255.76795821      -2.635E-06   1236.02    <-- DIS
     424     255.76685500     255.76752514      -2.620E-06   1238.99    <-- DIS
     425     255.76643159     255.76709786      -2.605E-06   1241.99    <-- DIS
     426     255.76601387     255.76667628      -2.590E-06   1244.93    <-- DIS
     427     255.76560176     255.76626032      -2.575E-06   1247.85    <-- DIS
     428     255.76519518     255.76584990      -2.560E-06   1250.83    <-- DIS
     429     255.76479405     255.76544494      -2.545E-06   1253.80    <-- DIS
     430     255.76439830     255.76504536      -2.530E-06   1256.77    <-- DIS
     431     255.76400784     255.76465110      -2.515E-06   1259.76    <-- DIS
     432     255.76362261     255.76426206      -2.500E-06   1262.76    <-- DIS
     433     255.76324253     255.76387819      -2.485E-06   1265.74    <-- DIS
     434     255.76286752     255.76349940      -2.471E-06   1268.71    <-- DIS
     435     255.76249752     255.76312563      -2.456E-06   1271.67    <-- DIS
     436     255.76213245     255.76275680      -2.441E-06   1274.62    <-- DIS
     437     255.76177224     255.76239285      -2.426E-06   1277.65    <-- DIS
     438     255.76141683     255.76203370      -2.412E-06   1280.63    <-- DIS
     439     255.76106615     255.76167930      -2.397E-06   1283.60    <-- DIS
     440     255.76072013     255.76132957      -2.383E-06   1286.56    <-- DIS
     441     255.76037870     255.76098445      -2.368E-06   1289.51    <-- DIS
     442     255.76004181     255.76064387      -2.354E-06   1292.47    <-- DIS
     443     255.75970939     255.76030778      -2.340E-06   1295.48    <-- DIS
     444     255.75938137     255.75997610      -2.325E-06   1298.44    <-- DIS
     445     255.75905769     255.75964878      -2.311E-06   1301.45    <-- DIS
     446     255.75873830     255.75932576      -2.297E-06   1304.44    <-- DIS
     447     255.75842313     255.75900697      -2.283E-06   1307.44    <-- DIS
     448     255.75811213     255.75869236      -2.269E-06   1310.42    <-- DIS
     449     255.75780523     255.75838187      -2.255E-06   1313.45    <-- DIS
     450     255.75750237     255.75807545      -2.241E-06   1316.45    <-- DIS
     451     255.75720352     255.75777303      -2.227E-06   1319.46    <-- DIS
     452     255.75690859     255.75747456      -2.213E-06   1322.45    <-- DIS
     453     255.75661755     255.75717999      -2.199E-06   1325.38    <-- DIS
     454     255.75633034     255.75688926      -2.185E-06   1328.36    <-- DIS
     455     255.75604690     255.75660232      -2.172E-06   1331.40    <-- DIS
     456     255.75576719     255.75631912      -2.158E-06   1334.39    <-- DIS
     457     255.75549115     255.75603960      -2.144E-06   1337.42    <-- DIS
     458     255.75521872     255.75576372      -2.131E-06   1340.47    <-- DIS
     459     255.75494987     255.75549143      -2.117E-06   1343.49    <-- DIS
     460     255.75468454     255.75522267      -2.104E-06   1346.52    <-- DIS
     461     255.75442268     255.75495740      -2.091E-06   1349.62    <-- DIS
     462     255.75416424     255.75469556      -2.077E-06   1352.65    <-- DIS
     463     255.75390918     255.75443712      -2.064E-06   1355.68    <-- DIS
     464     255.75365745     255.75418203      -2.051E-06   1358.73    <-- DIS
     465     255.75340901     255.75393024      -2.038E-06   1361.78    <-- DIS
     466     255.75316380     255.75368170      -2.025E-06   1364.80    <-- DIS
     467     255.75292179     255.75343637      -2.012E-06   1367.89    <-- DIS
     468     255.75268293     255.75319421      -1.999E-06   1370.92    <-- DIS
     469     255.75244718     255.75295518      -1.986E-06   1373.97    <-- DIS
     470     255.75221450     255.75271922      -1.973E-06   1377.01    <-- DIS
     471     255.75198484     255.75248631      -1.961E-06   1380.08    <-- DIS
     472     255.75175816     255.75225639      -1.948E-06   1383.11    <-- DIS
     473     255.75153442     255.75202943      -1.936E-06   1386.17    <-- DIS
     474     255.75131358     255.75180538      -1.923E-06   1389.20    <-- DIS
     475     255.75109560     255.75158422      -1.911E-06   1392.20    <-- DIS
     476     255.75088045     255.75136589      -1.898E-06   1395.20    <-- DIS
     477     255.75066808     255.75115036      -1.886E-06   1398.21    <-- DIS
     478     255.75045845     255.75093760      -1.873E-06   1401.21    <-- DIS
     479     255.75025153     255.75072756      -1.861E-06   1404.26    <-- DIS
     480     255.75004729     255.75052021      -1.849E-06   1407.31    <-- DIS
     481     255.74984568     255.75031551      -1.837E-06   1410.32    <-- DIS
     482     255.74964667     255.75011342      -1.825E-06   1413.31    <-- DIS
     483     255.74945023     255.74991392      -1.813E-06   1416.52    <-- DIS
     484     255.74925631     255.74971696      -1.801E-06   1419.44    <-- DIS
     485     255.74906489     255.74952251      -1.789E-06   1422.43    <-- DIS
     486     255.74887593     255.74933055      -1.778E-06   1425.37    <-- DIS
     487     255.74868940     255.74914102      -1.766E-06   1428.34    <-- DIS
     488     255.74850527     255.74895391      -1.754E-06   1431.25    <-- DIS
     489     255.74832350     255.74876918      -1.743E-06   1434.21    <-- DIS
     490     255.74814406     255.74858679      -1.731E-06   1437.20    <-- DIS
     491     255.74796692     255.74840673      -1.720E-06   1440.17    <-- DIS
     492     255.74779205     255.74822894      -1.708E-06   1443.11    <-- DIS
     493     255.74761941     255.74805341      -1.697E-06   1446.00    <-- DIS
     494     255.74744899     255.74788011      -1.686E-06   1448.93    <-- DIS
     495     255.74728074     255.74770900      -1.675E-06   1451.87    <-- DIS
     496     255.74711465     255.74754006      -1.663E-06   1454.92    <-- DIS
     497     255.74695067     255.74737325      -1.652E-06   1457.98    <-- DIS
     498     255.74678879     255.74720855      -1.641E-06   1461.00    <-- DIS
     499     255.74662897     255.74704593      -1.630E-06   1464.01    <-- DIS
     500     255.74647118     255.74688536      -1.619E-06   1467.03    <-- DIS
     501     255.74631541     255.74672682      -1.609E-06   1470.07    <-- DIS
     502     255.74616162     255.74657028      -1.598E-06   1473.11    <-- DIS
     503     255.74600978     255.74641571      -1.587E-06   1476.20    <-- DIS
     504     255.74585987     255.74626308      -1.577E-06   1479.21    <-- DIS
     505     255.74571187     255.74611238      -1.566E-06   1482.25    <-- DIS
     506     255.74556575     255.74596357      -1.556E-06   1485.30    <-- DIS
     507     255.74542148     255.74581663      -1.545E-06   1488.31    <-- DIS
     508     255.74527903     255.74567153      -1.535E-06   1491.31    <-- DIS
     509     255.74513840     255.74552825      -1.524E-06   1494.38    <-- DIS
     510     255.74499954     255.74538677      -1.514E-06   1497.40    <-- DIS
     511     255.74486244     255.74524706      -1.504E-06   1500.39    <-- DIS
     512     255.74472708     255.74510911      -1.494E-06   1503.38    <-- DIS
     513     255.74459342     255.74497287      -1.484E-06   1506.38    <-- DIS
     514     255.74446145     255.74483834      -1.474E-06   1509.38    <-- DIS
     515     255.74433115     255.74470550      -1.464E-06   1512.42    <-- DIS
     516     255.74420250     255.74457431      -1.454E-06   1515.42    <-- DIS
     517     255.74407546     255.74444476      -1.444E-06   1518.40    <-- DIS
     518     255.74395002     255.74431682      -1.434E-06   1521.41    <-- DIS
     519     255.74382617     255.74419048      -1.425E-06   1524.41    <-- DIS
     520     255.74370387     255.74406571      -1.415E-06   1527.39    <-- DIS
     521     255.74358311     255.74394250      -1.405E-06   1530.43    <-- DIS
     522     255.74346387     255.74382082      -1.396E-06   1533.41    <-- DIS
     523     255.74334612     255.74370065      -1.386E-06   1536.41    <-- DIS
     524     255.74322986     255.74358197      -1.377E-06   1539.38    <-- DIS
     525     255.74311505     255.74346477      -1.367E-06   1542.37    <-- DIS
     526     255.74300168     255.74334902      -1.358E-06   1545.36    <-- DIS
     527     255.74288973     255.74323471      -1.349E-06   1548.38    <-- DIS
     528     255.74277919     255.74312181      -1.340E-06   1551.33    <-- DIS
     529     255.74267002     255.74301032      -1.331E-06   1554.28    <-- DIS
     530     255.74256222     255.74290020      -1.322E-06   1557.24    <-- DIS
     531     255.74245577     255.74279144      -1.313E-06   1560.19    <-- DIS
     532     255.74235065     255.74268403      -1.304E-06   1563.14    <-- DIS
     533     255.74224685     255.74257795      -1.295E-06   1566.41    <-- DIS
     534     255.74214433     255.74247317      -1.286E-06   1569.38    <-- DIS
     535     255.74204310     255.74236969      -1.277E-06   1572.32    <-- DIS
     536     255.74194313     255.74226748      -1.268E-06   1575.25    <-- DIS
     537     255.74184440     255.74216654      -1.260E-06   1578.20    <-- DIS
     538     255.74174690     255.74206683      -1.251E-06   1581.18    <-- DIS
     539     255.74165061     255.74196836      -1.242E-06   1584.64    <-- DIS
     540     255.74155553     255.74187109      -1.234E-06   1587.59    <-- DIS
     541     255.74146162     255.74177502      -1.225E-06   1590.54    <-- DIS
     542     255.74136888     255.74168013      -1.217E-06   1593.50    <-- DIS
     543     255.74127729     255.74158641      -1.209E-06   1596.46    <-- DIS
     544     255.74118684     255.74149383      -1.200E-06   1599.41    <-- DIS
     545     255.74109751     255.74140239      -1.192E-06   1602.86    <-- DIS
     546     255.74100928     255.74131207      -1.184E-06   1605.82    <-- DIS
     547     255.74092215     255.74122286      -1.176E-06   1608.77    <-- DIS
     548     255.74083609     255.74113474      -1.168E-06   1611.73    <-- DIS
     549     255.74075110     255.74104770      -1.160E-06   1614.68    <-- DIS
     550     255.74066717     255.74096172      -1.152E-06   1617.63    <-- DIS
     551     255.74058426     255.74087679      -1.144E-06   1621.09    <-- DIS
     552     255.74050239     255.74079290      -1.136E-06   1624.06    <-- DIS
     553     255.74042152     255.74071003      -1.128E-06   1627.01    <-- DIS
     554     255.74034165     255.74062817      -1.120E-06   1629.94    <-- DIS
     555     255.74026276     255.74054731      -1.113E-06   1632.91    <-- DIS
     556     255.74018485     255.74046744      -1.105E-06   1635.88    <-- DIS
     557     255.74010790     255.74038854      -1.097E-06   1638.85    <-- DIS
     558     255.74003189     255.74031059      -1.090E-06   1641.82    <-- DIS
     559     255.73995682     255.74023360      -1.082E-06   1644.78    <-- DIS
     560     255.73988267     255.74015754      -1.075E-06   1647.74    <-- DIS
     561     255.73980943     255.74008240      -1.067E-06   1650.69    <-- DIS
     562     255.73973709     255.74000818      -1.060E-06   1653.58    <-- DIS
     563     255.73966564     255.73993486      -1.053E-06   1656.55    <-- DIS
     564     255.73959507     255.73986242      -1.045E-06   1659.65    <-- DIS
     565     255.73952536     255.73979087      -1.038E-06   1662.69    <-- DIS
     566     255.73945650     255.73972018      -1.031E-06   1665.70    <-- DIS
     567     255.73938849     255.73965034      -1.024E-06   1668.65    <-- DIS
     568     255.73932131     255.73958135      -1.017E-06   1671.68    <-- DIS
     569     255.73925496     255.73951320      -1.010E-06   1674.71    <-- DIS
     570     255.73918941     255.73944586      -1.003E-06   1677.74    <-- DIS
     571     255.73912466     255.73937934      -9.959E-07   1680.71    <-- DIS
     572     255.73906071     255.73931363      -9.890E-07   1683.74    <-- DIS
     573     255.73899754     255.73924870      -9.821E-07   1686.77    <-- DIS
     574     255.73893513     255.73918456      -9.753E-07   1689.80    <-- DIS
     575     255.73887349     255.73912119      -9.686E-07   1692.88    <-- DIS
     576     255.73881260     255.73905858      -9.618E-07   1695.90    <-- DIS
     577     255.73875245     255.73899673      -9.552E-07   1698.87    <-- DIS
     578     255.73869303     255.73893562      -9.486E-07   1701.81    <-- DIS
     579     255.73863434     255.73887524      -9.420E-07   1704.77    <-- DIS
     580     255.73857636     255.73881559      -9.355E-07   1707.71    <-- DIS
     581     255.73851908     255.73875666      -9.290E-07   1710.69    <-- DIS
     582     255.73846251     255.73869843      -9.225E-07   1713.69    <-- DIS
     583     255.73840661     255.73864090      -9.161E-07   1716.63    <-- DIS
     584     255.73835140     255.73858406      -9.098E-07   1719.57    <-- DIS
     585     255.73829685     255.73852791      -9.035E-07   1722.52    <-- DIS
     586     255.73824297     255.73847242      -8.972E-07   1725.46    <-- DIS
     587     255.73818974     255.73841760      -8.910E-07   1728.37    <-- DIS
     588     255.73813715     255.73836343      -8.848E-07   1731.34    <-- DIS
     589     255.73808520     255.73830991      -8.787E-07   1734.25    <-- DIS
     590     255.73803388     255.73825703      -8.726E-07   1737.17    <-- DIS
     591     255.73798318     255.73820478      -8.665E-07   1740.11    <-- DIS
     592     255.73793310     255.73815315      -8.605E-07   1743.08    <-- DIS
     593     255.73788361     255.73810214      -8.545E-07   1746.03    <-- DIS
     594     255.73783473     255.73805174      -8.486E-07   1749.03    <-- DIS
     595     255.73778643     255.73800194      -8.427E-07   1751.97    <-- DIS
     596     255.73773872     255.73795273      -8.368E-07   1754.92    <-- DIS
     597     255.73769158     255.73790410      -8.310E-07   1757.88    <-- DIS
     598     255.73764501     255.73785606      -8.252E-07   1760.86    <-- DIS
     599     255.73759900     255.73780858      -8.195E-07   1763.85    <-- DIS
     600     255.73755355     255.73776167      -8.138E-07   1766.93    <-- DIS
     601     255.73750864     255.73771531      -8.082E-07   1769.94    <-- DIS
     602     255.73746427     255.73766951      -8.025E-07   1772.95    <-- DIS
     603     255.73742044     255.73762425      -7.970E-07   1775.96    <-- DIS
     604     255.73737713     255.73757952      -7.914E-07   1779.00    <-- DIS
     605     255.73733434     255.73753533      -7.859E-07   1782.01    <-- DIS
     606     255.73729206     255.73749165      -7.805E-07   1785.07    <-- DIS
     607     255.73725029     255.73744850      -7.750E-07   1788.13    <-- DIS
     608     255.73720903     255.73740585      -7.696E-07   1791.12    <-- DIS
     609     255.73716825     255.73736371      -7.643E-07   1794.13    <-- DIS
     610     255.73712797     255.73732207      -7.590E-07   1797.14    <-- DIS
     611     255.73708817     255.73728091      -7.537E-07   1800.16    <-- DIS
     612     255.73704884     255.73724025      -7.485E-07   1803.23    <-- DIS
     613     255.73700998     255.73720006      -7.433E-07   1806.23    <-- DIS
     614     255.73697159     255.73716035      -7.381E-07   1809.22    <-- DIS
     615     255.73693366     255.73712110      -7.330E-07   1812.12    <-- DIS
     616     255.73689618     255.73708232      -7.279E-07   1815.06    <-- DIS
     617     255.73685914     255.73704399      -7.228E-07   1818.01    <-- DIS
     618     255.73682255     255.73700611      -7.178E-07   1820.99    <-- DIS
     619     255.73678640     255.73696868      -7.128E-07   1823.90    <-- DIS
     620     255.73675067     255.73693169      -7.078E-07   1826.90    <-- DIS
     621     255.73671537     255.73689513      -7.029E-07   1829.94    <-- DIS
     622     255.73668050     255.73685900      -6.980E-07   1832.95    <-- DIS
     623     255.73664603     255.73682330      -6.932E-07   1835.94    <-- DIS
     624     255.73661198     255.73678801      -6.883E-07   1838.98    <-- DIS
     625     255.73657833     255.73675314      -6.836E-07   1841.96    <-- DIS
     626     255.73654508     255.73671867      -6.788E-07   1844.98    <-- DIS
     627     255.73651223     255.73668461      -6.741E-07   1848.01    <-- DIS
     628     255.73647976     255.73665095      -6.694E-07   1851.02    <-- DIS
     629     255.73644768     255.73661768      -6.647E-07   1854.03    <-- DIS
     630     255.73641598     255.73658480      -6.601E-07   1857.09    <-- DIS
     631     255.73638466     255.73655230      -6.555E-07   1860.11    <-- DIS
     632     255.73635371     255.73652019      -6.510E-07   1863.12    <-- DIS
     633     255.73632312     255.73648844      -6.464E-07   1866.03    <-- DIS
     634     255.73629290     255.73645707      -6.419E-07   1868.99    <-- DIS
     635     255.73626304     255.73642606      -6.375E-07   1871.92    <-- DIS
     636     255.73623352     255.73639542      -6.331E-07   1874.97    <-- DIS
     637     255.73620436     255.73636513      -6.287E-07   1877.95    <-- DIS
     638     255.73617554     255.73633519      -6.243E-07   1880.89    <-- DIS
     639     255.73614706     255.73630560      -6.199E-07   1883.83    <-- DIS
     640     255.73611892     255.73627636      -6.156E-07   1886.77    <-- DIS
     641     255.73609111     255.73624746      -6.114E-07   1889.75    <-- DIS
     642     255.73606363     255.73621889      -6.071E-07   1892.75    <-- DIS
     643     255.73603647     255.73619065      -6.029E-07   1895.69    <-- DIS
     644     255.73600963     255.73616274      -5.987E-07   1898.64    <-- DIS
     645     255.73598311     255.73613515      -5.945E-07   1901.58    <-- DIS
     646     255.73595689     255.73610788      -5.904E-07   1904.52    <-- DIS
     647     255.73593099     255.73608093      -5.863E-07   1907.48    <-- DIS
     648     255.73590539     255.73605429      -5.822E-07   1910.74    <-- DIS
     649     255.73588010     255.73602796      -5.782E-07   1913.71    <-- DIS
     650     255.73585510     255.73600194      -5.742E-07   1916.71    <-- DIS
     651     255.73583039     255.73597621      -5.702E-07   1919.70    <-- DIS
     652     255.73580598     255.73595078      -5.662E-07   1922.69    <-- DIS
     653     255.73578185     255.73592565      -5.623E-07   1925.69    <-- DIS
     654     255.73575800     255.73590080      -5.584E-07   1928.65    <-- DIS
     655     255.73573443     255.73587624      -5.545E-07   1931.60    <-- DIS
     656     255.73571114     255.73585197      -5.507E-07   1934.55    <-- DIS
     657     255.73568812     255.73582797      -5.468E-07   1937.51    <-- DIS
     658     255.73566537     255.73580425      -5.431E-07   1940.46    <-- DIS
     659     255.73564289     255.73578080      -5.393E-07   1943.41    <-- DIS
     660     255.73562067     255.73575763      -5.355E-07   1946.37    <-- DIS
     661     255.73559871     255.73573471      -5.318E-07   1949.38    <-- DIS
     662     255.73557700     255.73571207      -5.281E-07   1952.33    <-- DIS
     663     255.73555555     255.73568968      -5.245E-07   1955.29    <-- DIS
     664     255.73553435     255.73566755      -5.208E-07   1958.26    <-- DIS
     665     255.73551340     255.73564567      -5.172E-07   1961.22    <-- DIS
     666     255.73549269     255.73562405      -5.136E-07   1964.18    <-- DIS
     667     255.73547223     255.73560267      -5.101E-07   1967.21    <-- DIS
     668     255.73545200     255.73558154      -5.065E-07   1970.20    <-- DIS
     669     255.73543200     255.73556065      -5.030E-07   1973.13    <-- DIS
     670     255.73541224     255.73553999      -4.995E-07   1976.05    <-- DIS
     671     255.73539271     255.73551958      -4.961E-07   1978.98    <-- DIS
     672     255.73537341     255.73549940      -4.926E-07   1981.93    <-- DIS
     673     255.73535433     255.73547944      -4.892E-07   1984.91    <-- DIS
     674     255.73533548     255.73545972      -4.858E-07   1987.85    <-- DIS
     675     255.73531684     255.73544022      -4.825E-07   1990.80    <-- DIS
     676     255.73529842     255.73542095      -4.791E-07   1993.76    <-- DIS
     677     255.73528021     255.73540189      -4.758E-07   1996.75    <-- DIS
     678     255.73526221     255.73538305      -4.725E-07   1999.73    <-- DIS
     679     255.73524442     255.73536442      -4.692E-07   2002.74    <-- DIS
     680     255.73522684     255.73534601      -4.660E-07   2005.72    <-- DIS
     681     255.73520946     255.73532781      -4.628E-07   2008.67    <-- DIS
     682     255.73519229     255.73530981      -4.596E-07   2011.66    <-- DIS
     683     255.73517531     255.73529202      -4.564E-07   2014.67    <-- DIS
     684     255.73515853     255.73527443      -4.532E-07   2017.68    <-- DIS
     685     255.73514194     255.73525704      -4.501E-07   2020.75    <-- DIS
     686     255.73512554     255.73523985      -4.470E-07   2023.81    <-- DIS
     687     255.73510934     255.73522285      -4.439E-07   2026.87    <-- DIS
     688     255.73509332     255.73520605      -4.408E-07   2029.92    <-- DIS
     689     255.73507748     255.73518943      -4.378E-07   2032.97    <-- DIS
     690     255.73506183     255.73517301      -4.347E-07   2036.03    <-- DIS
     691     255.73504636     255.73515677      -4.317E-07   2039.11    <-- DIS
     692     255.73503106     255.73514071      -4.288E-07   2042.15    <-- DIS
     693     255.73501595     255.73512484      -4.258E-07   2045.18    <-- DIS
     694     255.73500101     255.73510914      -4.228E-07   2048.21    <-- DIS
     695     255.73498623     255.73509363      -4.199E-07   2051.23    <-- DIS
     696     255.73497163     255.73507828      -4.170E-07   2054.25    <-- DIS
     697     255.73495720     255.73506311      -4.141E-07   2057.30    <-- DIS
     698     255.73494293     255.73504812      -4.113E-07   2060.35    <-- DIS
     699     255.73492883     255.73503329      -4.085E-07   2063.39    <-- DIS
     700     255.73491489     255.73501862      -4.056E-07   2066.44    <-- DIS
     701     255.73490111     255.73500413      -4.028E-07   2069.42    <-- DIS
     702     255.73488749     255.73498979      -4.001E-07   2072.47    <-- DIS
     703     255.73487402     255.73497562      -3.973E-07   2075.56    <-- DIS
     704     255.73486071     255.73496161      -3.946E-07   2078.64    <-- DIS
     705     255.73484755     255.73494775      -3.918E-07   2081.66    <-- DIS
     706     255.73483454     255.73493405      -3.891E-07   2084.70    <-- DIS
     707     255.73482168     255.73492051      -3.864E-07   2087.73    <-- DIS
     708     255.73480897     255.73490712      -3.838E-07   2090.73    <-- DIS
     709     255.73479640     255.73489387      -3.811E-07   2093.77    <-- DIS
     710     255.73478398     255.73488078      -3.785E-07   2096.81    <-- DIS
     711     255.73477170     255.73486783      -3.759E-07   2099.84    <-- DIS
     712     255.73475956     255.73485503      -3.733E-07   2102.86    <-- DIS
     713     255.73474756     255.73484237      -3.707E-07   2105.92    <-- DIS
     714     255.73473569     255.73482985      -3.682E-07   2108.96    <-- DIS
     715     255.73472396     255.73481747      -3.657E-07   2112.01    <-- DIS
     716     255.73471236     255.73480523      -3.631E-07   2115.05    <-- DIS
     717     255.73470090     255.73479313      -3.606E-07   2118.06    <-- DIS
     718     255.73468957     255.73478116      -3.582E-07   2121.08    <-- DIS
     719     255.73467836     255.73476933      -3.557E-07   2124.12    <-- DIS
     720     255.73466729     255.73475763      -3.533E-07   2127.14    <-- DIS
     721     255.73465634     255.73474606      -3.508E-07   2130.22    <-- DIS
     722     255.73464551     255.73473461      -3.484E-07   2133.28    <-- DIS
     723     255.73463481     255.73472330      -3.460E-07   2136.33    <-- DIS
     724     255.73462423     255.73471211      -3.436E-07   2139.37    <-- DIS
     725     255.73461377     255.73470105      -3.413E-07   2142.40    <-- DIS
     726     255.73460343     255.73469011      -3.389E-07   2145.43    <-- DIS
     727     255.73459320     255.73467929      -3.366E-07   2148.50    <-- DIS
     728     255.73458310     255.73466859      -3.343E-07   2151.53    <-- DIS
     729     255.73457310     255.73465801      -3.320E-07   2154.56    <-- DIS
     730     255.73456322     255.73464754      -3.297E-07   2157.57    <-- DIS
     731     255.73455346     255.73463720      -3.275E-07   2160.59    <-- DIS
     732     255.73454380     255.73462697      -3.252E-07   2163.62    <-- DIS
     733     255.73453425     255.73461685      -3.230E-07   2166.67    <-- DIS
     734     255.73452481     255.73460684      -3.208E-07   2169.68    <-- DIS
     735     255.73451548     255.73459695      -3.186E-07   2172.69    <-- DIS
     736     255.73450625     255.73458716      -3.164E-07   2175.69    <-- DIS
     737     255.73449713     255.73457748      -3.142E-07   2178.71    <-- DIS
     738     255.73448811     255.73456791      -3.121E-07   2181.73    <-- DIS
     739     255.73447919     255.73455845      -3.099E-07   2184.76    <-- DIS
     740     255.73447037     255.73454909      -3.078E-07   2187.80    <-- DIS
     741     255.73446165     255.73453983      -3.057E-07   2190.80    <-- DIS
     742     255.73445304     255.73453067      -3.036E-07   2193.84    <-- DIS
     743     255.73444451     255.73452162      -3.015E-07   2196.85    <-- DIS
     744     255.73443609     255.73451267      -2.995E-07   2199.85    <-- DIS
     745     255.73442776     255.73450381      -2.974E-07   2202.91    <-- DIS
     746     255.73441952     255.73449506      -2.954E-07   2205.92    <-- DIS
     747     255.73441137     255.73448639      -2.933E-07   2208.98    <-- DIS
     748     255.73440332     255.73447783      -2.913E-07   2211.99    <-- DIS
     749     255.73439536     255.73446936      -2.894E-07   2214.97    <-- DIS
     750     255.73438749     255.73446098      -2.874E-07   2217.97    <-- DIS
     751     255.73437970     255.73445269      -2.854E-07   2220.95    <-- DIS
     752     255.73437201     255.73444450      -2.835E-07   2223.96    <-- DIS
[...]
  WF centre and spread   63  ( -0.000000, -0.173753, 28.678389 )     3.28925717
  WF centre and spread   64  ( -0.000000, -0.133434, 28.733539 )     2.98032141
  WF centre and spread   65  (  0.000000,  0.178574, 28.678355 )     3.28823029
  WF centre and spread   66  (  0.000000,  0.136219, 28.733562 )     2.97989658
  WF centre and spread   67  (  0.000000, -0.001185, 69.736344 )     3.06579300
  WF centre and spread   68  ( -0.000000, -0.002326, 69.698302 )     3.23180556
  WF centre and spread   69  ( -0.000000, -0.133610, 69.659097 )     2.98242894
  WF centre and spread   70  (  0.000000, -0.174042, 69.604022 )     3.29171078
  WF centre and spread   71  (  0.000000,  0.136393, 69.659124 )     2.98199749
  WF centre and spread   72  ( -0.000000,  0.178859, 69.603998 )     3.29065217
  WF centre and spread   73  ( -0.000000, -0.000000, -0.000000 )     0.64070466
  WF centre and spread   74  ( -0.000000, -0.000000, -0.000000 )     1.24611779
  WF centre and spread   75  ( -0.000000, -0.000000,  0.000000 )     0.66695009
  WF centre and spread   76  ( -0.000000, -0.000000,  0.000000 )     1.05755307
  WF centre and spread   77  (  0.000000, -0.000000, -0.000000 )     0.66562385
  WF centre and spread   78  ( -0.000000, -0.000000, -0.000000 )     1.05615368
  WF centre and spread   79  ( -0.000000, -0.000000, -0.000000 )     0.66437728
  WF centre and spread   80  (  0.000000, -0.000000, -0.000000 )     1.22620786
  WF centre and spread   81  (  0.000000, -0.000000,  0.000000 )     0.66440007
  WF centre and spread   82  ( -0.000000, -0.000000,  0.000000 )     1.22618899
  WF centre and spread   83  (  0.000000, -0.000000, 40.926014 )     1.24390051
  WF centre and spread   84  ( -0.000000, -0.000000, 40.926014 )     0.64054257
  WF centre and spread   85  (  0.000000, -0.000000, 40.926014 )     1.05548018
  WF centre and spread   86  ( -0.000000, -0.000000, 40.926014 )     0.66694457
  WF centre and spread   87  ( -0.000000, -0.000000, 40.926014 )     1.05412311
  WF centre and spread   88  (  0.000000,  0.000000, 40.926014 )     0.66561258
  WF centre and spread   89  (  0.000000,  0.000000, 40.926014 )     1.22371656
  WF centre and spread   90  ( -0.000000, -0.000000, 40.926014 )     0.66417297
  WF centre and spread   91  ( -0.000000, -0.000000, 40.926014 )     1.22369823
  WF centre and spread   92  (  0.000000,  0.000000, 40.926014 )     0.66419955
  Sum of centres and spreads ( -0.000000,  0.000000,********** )   267.85820824
 
     99    -0.227E-02     0.1514610480      267.8582092329    6498.36  <-- CONV
        O_D=      0.5297743 O_OD=     11.5947649 O_TOT=    267.8582092 <-- SPRD
 Delta: O_D= -0.3170587E-04 O_OD= -0.2236126E-02 O_TOT= -0.2267832E-02 <-- DLTA
 ------------------------------------------------------------------------------
 Cycle:    100
  WF centre and spread    1  ( -0.000000, -0.000336, 17.270116 )     4.15195522
  WF centre and spread    2  (  0.000000, -0.001047, 17.174979 )     4.73030484
  WF centre and spread    3  ( -0.000000, -0.065124, 17.320014 )     3.84636599
  WF centre and spread    4  ( -0.000000, -0.092871, 17.264254 )     4.26025440
  WF centre and spread    5  (  0.000000,  0.066285, 17.319996 )     3.84626811
  WF centre and spread    6  (  0.000000,  0.095263, 17.264201 )     4.26001620
  WF centre and spread    7  ( -0.000000, -0.001091, 58.102465 )     4.71949533
  WF centre and spread    8  (  0.000000, -0.000371, 58.197532 )     4.14191864
  WF centre and spread    9  ( -0.000000, -0.092572, 58.191423 )     4.25298041
  WF centre and spread   10  (  0.000000, -0.064840, 58.247184 )     3.83906594
  WF centre and spread   11  (  0.000000,  0.094981, 58.191358 )     4.25276161
  WF centre and spread   12  ( -0.000000,  0.066000, 58.247149 )     3.83891710
  WF centre and spread   13  (  0.000000,  0.001091, 23.749562 )     4.71949523
  WF centre and spread   14  (  0.000000,  0.000371, 23.654495 )     4.14191855
  WF centre and spread   15  ( -0.000000,  0.092572, 23.660604 )     4.25297526
  WF centre and spread   16  (  0.000000,  0.064840, 23.604843 )     3.83906221
  WF centre and spread   17  (  0.000000, -0.094981, 23.660669 )     4.25276688
  WF centre and spread   18  ( -0.000000, -0.066000, 23.604878 )     3.83892057
  WF centre and spread   19  ( -0.000000,  0.000336, 64.581911 )     4.15195534
  WF centre and spread   20  (  0.000000,  0.001047, 64.677048 )     4.73030499
  WF centre and spread   21  ( -0.000000,  0.065124, 64.532013 )     3.84636250
  WF centre and spread   22  ( -0.000000,  0.092871, 64.587773 )     4.26024922
  WF centre and spread   23  (  0.000000, -0.066284, 64.532031 )     3.84627201
  WF centre and spread   24  (  0.000000, -0.095263, 64.587826 )     4.26002147
  WF centre and spread   25  (  0.000000,  0.000071,  5.454674 )     3.18772926
  WF centre and spread   26  ( -0.000000,  0.000144,  5.485272 )     3.07377300
  WF centre and spread   27  ( -0.000000,  0.024018,  5.426494 )     3.15761343
  WF centre and spread   28  ( -0.000000,  0.038484,  5.455086 )     2.95639592
  WF centre and spread   29  (  0.000000, -0.024315,  5.426498 )     3.15688524
  WF centre and spread   30  (  0.000000, -0.039009,  5.455078 )     2.95597750
  WF centre and spread   31  (  0.000000,  0.000120, 46.410830 )     3.07532796
  WF centre and spread   32  ( -0.000000,  0.000061, 46.380106 )     3.19019767
  WF centre and spread   33  (  0.000000,  0.038200, 46.380429 )     2.96090975
  WF centre and spread   34  ( -0.000000,  0.023814, 46.351863 )     3.16178863
  WF centre and spread   35  ( -0.000000, -0.038722, 46.380428 )     2.96045795
  WF centre and spread   36  (  0.000000, -0.024132, 46.351877 )     3.16096096
  WF centre and spread   37  (  0.000000, -0.000120, 35.441197 )     3.07532804
  WF centre and spread   38  (  0.000000, -0.000061, 35.471921 )     3.19019767
  WF centre and spread   39  (  0.000000, -0.038200, 35.471598 )     2.96091178
  WF centre and spread   40  ( -0.000000, -0.023814, 35.500164 )     3.16178977
  WF centre and spread   41  ( -0.000000,  0.038722, 35.471599 )     2.96045613
  WF centre and spread   42  (  0.000000,  0.024132, 35.500150 )     3.16095990
  WF centre and spread   43  ( -0.000000, -0.000071, 76.397353 )     3.18772923
  WF centre and spread   44  (  0.000000, -0.000144, 76.366755 )     3.07377298
  WF centre and spread   45  ( -0.000000, -0.024018, 76.425533 )     3.15761452
  WF centre and spread   46  ( -0.000000, -0.038484, 76.396941 )     2.95639787
  WF centre and spread   47  (  0.000000,  0.024315, 76.425529 )     3.15688411
  WF centre and spread   48  (  0.000000,  0.039009, 76.396949 )     2.95597538
  WF centre and spread   49  (  0.000000,  0.001199, 12.115656 )     3.06603236
  WF centre and spread   50  ( -0.000000,  0.002355, 12.153699 )     3.23217204
  WF centre and spread   51  ( -0.000000,  0.133632, 12.192962 )     2.98268194
  WF centre and spread   52  (  0.000000,  0.174071, 12.248041 )     3.29236757
  WF centre and spread   53  (  0.000000, -0.136428, 12.192936 )     2.98226615
  WF centre and spread   54  ( -0.000000, -0.178919, 12.248065 )     3.29133161
  WF centre and spread   55  ( -0.000000,  0.002333, 53.079342 )     3.22984472
  WF centre and spread   56  (  0.000000,  0.001181, 53.041461 )     3.06410173
  WF centre and spread   57  ( -0.000000,  0.173783, 53.173674 )     3.28990672
  WF centre and spread   58  ( -0.000000,  0.133456, 53.118521 )     2.98057049
  WF centre and spread   59  (  0.000000, -0.178633, 53.173708 )     3.28890231
  WF centre and spread   60  (  0.000000, -0.136253, 53.118498 )     2.98016117
  WF centre and spread   61  (  0.000000, -0.002333, 28.772685 )     3.22984482
  WF centre and spread   62  (  0.000000, -0.001180, 28.810566 )     3.06410186
  WF centre and spread   63  ( -0.000000, -0.173783, 28.678353 )     3.28991606
  WF centre and spread   64  ( -0.000000, -0.133456, 28.733506 )     2.98057779
  WF centre and spread   65  (  0.000000,  0.178633, 28.678319 )     3.28889267
  WF centre and spread   66  (  0.000000,  0.136253, 28.733530 )     2.98015377
  WF centre and spread   67  (  0.000000, -0.001199, 69.736371 )     3.06603226
  WF centre and spread   68  ( -0.000000, -0.002355, 69.698328 )     3.23217220
  WF centre and spread   69  ( -0.000000, -0.133632, 69.659065 )     2.98268926
  WF centre and spread   70  (  0.000000, -0.174071, 69.603986 )     3.29237699
  WF centre and spread   71  (  0.000000,  0.136428, 69.659091 )     2.98225868
  WF centre and spread   72  ( -0.000000,  0.178919, 69.603962 )     3.29132194
  WF centre and spread   73  ( -0.000000, -0.000000, -0.000000 )     0.64070967
  WF centre and spread   74  ( -0.000000, -0.000000, -0.000000 )     1.24605831
  WF centre and spread   75  ( -0.000000, -0.000000,  0.000000 )     0.66714319
  WF centre and spread   76  ( -0.000000, -0.000000,  0.000000 )     1.05773603
  WF centre and spread   77  (  0.000000, -0.000000, -0.000000 )     0.66581105
  WF centre and spread   78  ( -0.000000, -0.000000, -0.000000 )     1.05633142
  WF centre and spread   79  ( -0.000000, -0.000000, -0.000000 )     0.66449477
  WF centre and spread   80  (  0.000000, -0.000000, -0.000000 )     1.22628691
  WF centre and spread   81  (  0.000000, -0.000000,  0.000000 )     0.66451717
  WF centre and spread   82  ( -0.000000, -0.000000,  0.000000 )     1.22626900
  WF centre and spread   83  (  0.000000, -0.000000, 40.926014 )     1.24384121
  WF centre and spread   84  ( -0.000000, -0.000000, 40.926014 )     0.64054759
  WF centre and spread   85  (  0.000000, -0.000000, 40.926014 )     1.05566321
  WF centre and spread   86  ( -0.000000, -0.000000, 40.926014 )     0.66713798
  WF centre and spread   87  ( -0.000000, -0.000000, 40.926014 )     1.05430092
  WF centre and spread   88  (  0.000000,  0.000000, 40.926014 )     0.66580006
  WF centre and spread   89  (  0.000000,  0.000000, 40.926014 )     1.22379596
  WF centre and spread   90  ( -0.000000, -0.000000, 40.926014 )     0.66429058
  WF centre and spread   91  ( -0.000000, -0.000000, 40.926014 )     1.22377856
  WF centre and spread   92  (  0.000000,  0.000000, 40.926014 )     0.66431677
  Sum of centres and spreads ( -0.000000,  0.000000,********** )   267.85615012
 
    100    -0.206E-02     0.1455536607      267.8561511117    6499.79  <-- CONV
        O_D=      0.5298295 O_OD=     11.5926516 O_TOT=    267.8561511 <-- SPRD
 Delta: O_D=  0.5516877E-04 O_OD= -0.2113290E-02 O_TOT= -0.2058121E-02 <-- DLTA
 ------------------------------------------------------------------------------

 Writing checkpoint file MnBi2Te4.chk... done

 Final State
  WF centre and spread    1  ( -0.000000, -0.000336, 17.270116 )     4.15195522
  WF centre and spread    2  (  0.000000, -0.001047, 17.174979 )     4.73030484
  WF centre and spread    3  ( -0.000000, -0.065124, 17.320014 )     3.84636599
  WF centre and spread    4  ( -0.000000, -0.092871, 17.264254 )     4.26025440
  WF centre and spread    5  (  0.000000,  0.066285, 17.319996 )     3.84626811
  WF centre and spread    6  (  0.000000,  0.095263, 17.264201 )     4.26001620
  WF centre and spread    7  ( -0.000000, -0.001091, 58.102465 )     4.71949533
  WF centre and spread    8  (  0.000000, -0.000371, 58.197532 )     4.14191864
  WF centre and spread    9  ( -0.000000, -0.092572, 58.191423 )     4.25298041
  WF centre and spread   10  (  0.000000, -0.064840, 58.247184 )     3.83906594
  WF centre and spread   11  (  0.000000,  0.094981, 58.191358 )     4.25276161
  WF centre and spread   12  ( -0.000000,  0.066000, 58.247149 )     3.83891710
  WF centre and spread   13  (  0.000000,  0.001091, 23.749562 )     4.71949523
  WF centre and spread   14  (  0.000000,  0.000371, 23.654495 )     4.14191855
  WF centre and spread   15  ( -0.000000,  0.092572, 23.660604 )     4.25297526
  WF centre and spread   16  (  0.000000,  0.064840, 23.604843 )     3.83906221
  WF centre and spread   17  (  0.000000, -0.094981, 23.660669 )     4.25276688
  WF centre and spread   18  ( -0.000000, -0.066000, 23.604878 )     3.83892057
  WF centre and spread   19  ( -0.000000,  0.000336, 64.581911 )     4.15195534
  WF centre and spread   20  (  0.000000,  0.001047, 64.677048 )     4.73030499
  WF centre and spread   21  ( -0.000000,  0.065124, 64.532013 )     3.84636250
  WF centre and spread   22  ( -0.000000,  0.092871, 64.587773 )     4.26024922
  WF centre and spread   23  (  0.000000, -0.066284, 64.532031 )     3.84627201
  WF centre and spread   24  (  0.000000, -0.095263, 64.587826 )     4.26002147
  WF centre and spread   25  (  0.000000,  0.000071,  5.454674 )     3.18772926
  WF centre and spread   26  ( -0.000000,  0.000144,  5.485272 )     3.07377300
  WF centre and spread   27  ( -0.000000,  0.024018,  5.426494 )     3.15761343
  WF centre and spread   28  ( -0.000000,  0.038484,  5.455086 )     2.95639592
  WF centre and spread   29  (  0.000000, -0.024315,  5.426498 )     3.15688524
  WF centre and spread   30  (  0.000000, -0.039009,  5.455078 )     2.95597750
  WF centre and spread   31  (  0.000000,  0.000120, 46.410830 )     3.07532796
  WF centre and spread   32  ( -0.000000,  0.000061, 46.380106 )     3.19019767
  WF centre and spread   33  (  0.000000,  0.038200, 46.380429 )     2.96090975
  WF centre and spread   34  ( -0.000000,  0.023814, 46.351863 )     3.16178863
  WF centre and spread   35  ( -0.000000, -0.038722, 46.380428 )     2.96045795
  WF centre and spread   36  (  0.000000, -0.024132, 46.351877 )     3.16096096
  WF centre and spread   37  (  0.000000, -0.000120, 35.441197 )     3.07532804
  WF centre and spread   38  (  0.000000, -0.000061, 35.471921 )     3.19019767
  WF centre and spread   39  (  0.000000, -0.038200, 35.471598 )     2.96091178
  WF centre and spread   40  ( -0.000000, -0.023814, 35.500164 )     3.16178977
  WF centre and spread   41  ( -0.000000,  0.038722, 35.471599 )     2.96045613
  WF centre and spread   42  (  0.000000,  0.024132, 35.500150 )     3.16095990
  WF centre and spread   43  ( -0.000000, -0.000071, 76.397353 )     3.18772923
  WF centre and spread   44  (  0.000000, -0.000144, 76.366755 )     3.07377298
  WF centre and spread   45  ( -0.000000, -0.024018, 76.425533 )     3.15761452
  WF centre and spread   46  ( -0.000000, -0.038484, 76.396941 )     2.95639787
  WF centre and spread   47  (  0.000000,  0.024315, 76.425529 )     3.15688411
  WF centre and spread   48  (  0.000000,  0.039009, 76.396949 )     2.95597538
  WF centre and spread   49  (  0.000000,  0.001199, 12.115656 )     3.06603236
  WF centre and spread   50  ( -0.000000,  0.002355, 12.153699 )     3.23217204
  WF centre and spread   51  ( -0.000000,  0.133632, 12.192962 )     2.98268194
  WF centre and spread   52  (  0.000000,  0.174071, 12.248041 )     3.29236757
  WF centre and spread   53  (  0.000000, -0.136428, 12.192936 )     2.98226615
  WF centre and spread   54  ( -0.000000, -0.178919, 12.248065 )     3.29133161
  WF centre and spread   55  ( -0.000000,  0.002333, 53.079342 )     3.22984472
  WF centre and spread   56  (  0.000000,  0.001181, 53.041461 )     3.06410173
  WF centre and spread   57  ( -0.000000,  0.173783, 53.173674 )     3.28990672
  WF centre and spread   58  ( -0.000000,  0.133456, 53.118521 )     2.98057049
  WF centre and spread   59  (  0.000000, -0.178633, 53.173708 )     3.28890231
  WF centre and spread   60  (  0.000000, -0.136253, 53.118498 )     2.98016117
  WF centre and spread   61  (  0.000000, -0.002333, 28.772685 )     3.22984482
  WF centre and spread   62  (  0.000000, -0.001180, 28.810566 )     3.06410186
  WF centre and spread   63  ( -0.000000, -0.173783, 28.678353 )     3.28991606
  WF centre and spread   64  ( -0.000000, -0.133456, 28.733506 )     2.98057779
  WF centre and spread   65  (  0.000000,  0.178633, 28.678319 )     3.28889267
  WF centre and spread   66  (  0.000000,  0.136253, 28.733530 )     2.98015377
  WF centre and spread   67  (  0.000000, -0.001199, 69.736371 )     3.06603226
  WF centre and spread   68  ( -0.000000, -0.002355, 69.698328 )     3.23217220
  WF centre and spread   69  ( -0.000000, -0.133632, 69.659065 )     2.98268926
  WF centre and spread   70  (  0.000000, -0.174071, 69.603986 )     3.29237699
  WF centre and spread   71  (  0.000000,  0.136428, 69.659091 )     2.98225868
  WF centre and spread   72  ( -0.000000,  0.178919, 69.603962 )     3.29132194
  WF centre and spread   73  ( -0.000000, -0.000000, -0.000000 )     0.64070967
  WF centre and spread   74  ( -0.000000, -0.000000, -0.000000 )     1.24605831
  WF centre and spread   75  ( -0.000000, -0.000000,  0.000000 )     0.66714319
  WF centre and spread   76  ( -0.000000, -0.000000,  0.000000 )     1.05773603
  WF centre and spread   77  (  0.000000, -0.000000, -0.000000 )     0.66581105
  WF centre and spread   78  ( -0.000000, -0.000000, -0.000000 )     1.05633142
  WF centre and spread   79  ( -0.000000, -0.000000, -0.000000 )     0.66449477
  WF centre and spread   80  (  0.000000, -0.000000, -0.000000 )     1.22628691
  WF centre and spread   81  (  0.000000, -0.000000,  0.000000 )     0.66451717
  WF centre and spread   82  ( -0.000000, -0.000000,  0.000000 )     1.22626900
  WF centre and spread   83  (  0.000000, -0.000000, 40.926014 )     1.24384121
  WF centre and spread   84  ( -0.000000, -0.000000, 40.926014 )     0.64054759
  WF centre and spread   85  (  0.000000, -0.000000, 40.926014 )     1.05566321
  WF centre and spread   86  ( -0.000000, -0.000000, 40.926014 )     0.66713798
  WF centre and spread   87  ( -0.000000, -0.000000, 40.926014 )     1.05430092
  WF centre and spread   88  (  0.000000,  0.000000, 40.926014 )     0.66580006
  WF centre and spread   89  (  0.000000,  0.000000, 40.926014 )     1.22379596
  WF centre and spread   90  ( -0.000000, -0.000000, 40.926014 )     0.66429058
  WF centre and spread   91  ( -0.000000, -0.000000, 40.926014 )     1.22377856
  WF centre and spread   92  (  0.000000,  0.000000, 40.926014 )     0.66431677
  Sum of centres and spreads ( -0.000000,  0.000000,********** )   267.85615012
 
         Spreads (Ang^2)       Omega I      =   255.733670043
        ================       Omega D      =     0.529829500
                               Omega OD     =    11.592651569
    Final Spread (Ang^2)       Omega Total  =   267.856151112
 ------------------------------------------------------------------------------

 Wannier centres written to file MnBi2Te4_centres.xyz
 Time for wannierise          148.528 (sec)

 Writing checkpoint file MnBi2Te4.chk... done

 *---------------------------------------------------------------------------*
 |                               PLOTTING                                    |
 *---------------------------------------------------------------------------*
 
 
 Calculating interpolated band-structure
 
 Time to calculate interpolated band structure     714.670 (sec)
 
 Time for plotting            822.826 (sec)
 Total Execution Time        7847.790 (sec)

 *===========================================================================*
 |                             TIMING INFORMATION                            |
 *===========================================================================*
 |    Tag                                                Ncalls      Time (s)|
 |---------------------------------------------------------------------------|
 |kmesh: get                                        :         1         0.565|
 |overlap: allocate                                 :         1         0.074|
 |overlap: read                                     :         1       490.525|
 |dis: main                                         :         1      6381.791|
 |wann: main                                        :         1       148.528|
 |plot: main                                        :         1       822.826|
 *---------------------------------------------------------------------------*
 
 All done: wannier90 exiting
