
     Program PWSCF v.7.2 starts on 10Nov2025 at 23:20:39 

     This program is part of the open-source Quantum ESPRESSO suite
     for quantum simulation of materials; please cite
         "P. Giannozzi et al., J. Phys.:Condens. Matter 21 395502 (2009);
         "P. Giannozzi et al., J. Phys.:Condens. Matter 29 465901 (2017);
         "P. Giannozzi et al., J. Chem. Phys. 152 154105 (2020);
          URL http://www.quantum-espresso.org", 
     in publications or presentations arising from this work. More details at
     http://www.quantum-espresso.org/quote

     Parallel version (MPI), running on    48 processors

     MPI processes distributed on     1 nodes
     254100 MiB available memory on the printing compute node when the environment starts
 
     Reading input from MnBi2Te4.scf.in

     Current dimensions of program PWSCF are:
     Max number of different atomic species (ntypx) = 10
     Max number of k-points (npk) =  40000
     Max angular momentum in pseudopotentials (lmaxx) =  4
     Message from routine iosys:
     restart disabled: needed files not found
     file Mn.rel-pbe-spn-kjpaw_psl.0.3.1.UPF: wavefunction(s)  3P 3P 3D renormalized
     file Mn.rel-pbe-spn-kjpaw_psl.0.3.1.UPF: wavefunction(s)  3P 3P 3D renormalized
     file Bi.rel-pbe-dn-kjpaw_psl.1.0.0.UPF: wavefunction(s)  6P 6P 5D 5D renormalized
     file Te.rel-pbe-n-kjpaw_psl.1.0.0.UPF: wavefunction(s)  5S 5P 5P renormalized

     Fixed quantization axis for GGA:     0.000000    0.000000    1.000000
     Message from routine setup:
     using ibrav=0 with symmetry is DISCOURAGED, use correct ibrav instead
 
     R & G space division:  proc/nbgrp/npool/nimage =      48
     Subspace diagonalization in iterative solution of the eigenvalue problem:
     one sub-group per band group will be used
     scalapack distributed-memory algorithm (size of sub-group:  2*  2 procs)

 
     Parallelization info
     --------------------
     sticks:   dense  smooth     PW     G-vecs:    dense   smooth      PW
     Min         350     168     49                11768     3915     621
     Max         351     169     50                11770     3917     622
     Sum       16819    8079   2353               564899   187971   29827
 
     Using Slab Decomposition
 


     bravais-lattice index     =            0
     lattice parameter (alat)  =      51.7756  a.u.
     unit-cell volume          =    2994.5793 (a.u.)^3
     number of atoms/cell      =           14
     number of atomic types    =            4
     number of electrons       =       138.00
     number of Kohn-Sham states=          166
     kinetic-energy cutoff     =      60.0000  Ry
     charge density cutoff     =     500.0000  Ry
     scf convergence threshold =      1.0E-06
     mixing beta               =       0.2000
     number of iterations used =            8  plain     mixing
     Exchange-correlation= SLA  PW   PBX  PBC
                           (   1   4   3   4   0   0   0)
     Noncollinear calculation with spin-orbit


     celldm(1)=  51.775642  celldm(2)=   0.000000  celldm(3)=   0.000000
     celldm(4)=   0.000000  celldm(5)=   0.000000  celldm(6)=   0.000000

     crystal axes: (cart. coord. in units of alat)
               a(1) = (   0.079085  -0.045660   0.995822 )  
               a(2) = (   0.000000   0.091319   0.995822 )  
               a(3) = (  -0.079085  -0.045660   0.995822 )  

     reciprocal axes: (cart. coord. in units 2 pi/alat)
               b(1) = (  6.322314 -3.650196  0.334731 )  
               b(2) = (  0.000000  7.300392  0.334734 )  
               b(3) = ( -6.322314 -3.650196  0.334731 )  


     PseudoPot. # 1 for Mn read from file:
     ./Mn.rel-pbe-spn-kjpaw_psl.0.3.1.UPF
     MD5 check sum: dfba1c7561257014502ac20495784078
     Pseudo is Projector augmented-wave + core cor, Zval = 15.0
     Generated using &quot;atomic&quot; code by A. Dal Corso  v.6.2.2
     Shape of augmentation charge: PSQ
     Using radial grid of 1187 points, 10 beta functions with: 
                l(1) =   0
                l(2) =   0
                l(3) =   1
                l(4) =   1
                l(5) =   1
                l(6) =   1
                l(7) =   2
                l(8) =   2
                l(9) =   2
               l(10) =   2
     Q(r) pseudized with 0 coefficients 


     PseudoPot. # 2 for Mn read from file:
     ./Mn.rel-pbe-spn-kjpaw_psl.0.3.1.UPF
     MD5 check sum: dfba1c7561257014502ac20495784078
     Pseudo is Projector augmented-wave + core cor, Zval = 15.0
     Generated using &quot;atomic&quot; code by A. Dal Corso  v.6.2.2
     Shape of augmentation charge: PSQ
     Using radial grid of 1187 points, 10 beta functions with: 
                l(1) =   0
                l(2) =   0
                l(3) =   1
                l(4) =   1
                l(5) =   1
                l(6) =   1
                l(7) =   2
                l(8) =   2
                l(9) =   2
               l(10) =   2
     Q(r) pseudized with 0 coefficients 


     PseudoPot. # 3 for Bi read from file:
     ./Bi.rel-pbe-dn-kjpaw_psl.1.0.0.UPF
     MD5 check sum: 8010b987e9fb97324c8de82fb26a3f7d
     Pseudo is Projector augmented-wave + core cor, Zval = 15.0
     Generated using &quot;atomic&quot; code by A. Dal Corso  v.6.2.2
     Shape of augmentation charge: PSQ
     Using radial grid of 1283 points, 10 beta functions with: 
                l(1) =   0
                l(2) =   0
                l(3) =   1
                l(4) =   1
                l(5) =   1
                l(6) =   1
                l(7) =   2
                l(8) =   2
                l(9) =   2
               l(10) =   2
     Q(r) pseudized with 0 coefficients 


     PseudoPot. # 4 for Te read from file:
     ./Te.rel-pbe-n-kjpaw_psl.1.0.0.UPF
     MD5 check sum: 8399411061dffbb19b40ade5049f5146
     Pseudo is Projector augmented-wave + core cor, Zval =  6.0
     Generated using &quot;atomic&quot; code by A. Dal Corso  v.6.3
     Shape of augmentation charge: PSQ
     Using radial grid of 1245 points, 10 beta functions with: 
                l(1) =   0
                l(2) =   0
                l(3) =   1
                l(4) =   1
                l(5) =   1
                l(6) =   1
                l(7) =   2
                l(8) =   2
                l(9) =   2
               l(10) =   2
     Q(r) pseudized with 0 coefficients 


     atomic species   valence    mass     pseudopotential
        Mn1           15.00    54.93800     Mn( 1.00)
        Mn2           15.00    54.93800     Mn( 1.00)
        Bi            15.00   208.98000     Bi( 1.00)
        Te             6.00   127.60300     Te( 1.00)

      4 Sym. Ops., with inversion, found


                                    s                        frac. trans.

      isym =  1     identity                                     

 Time Reversal            0
 cryst.   s( 1) = (     1          0          0      )
                  (     0          1          0      )
                  (     0          0          1      )

 cart.    s( 1) = (  1.0000000  0.0000000  0.0000000 )
                  (  0.0000000  1.0000000  0.0000000 )
                  (  0.0000000  0.0000000  1.0000000 )


      isym =  2     180 deg rotation - cart. axis [1,0,0]        

 Time Reversal            1
 cryst.   s( 2) = (     0          0         -1      )
                  (     0         -1          0      )
                  (    -1          0          0      )

 cart.    s( 2) = (  1.0000000  0.0000000  0.0000000 )
                  (  0.0000000 -1.0000000  0.0000000 )
                  (  0.0000000  0.0000000 -1.0000000 )


      isym =  3     inversion                                    

 Time Reversal            0
 cryst.   s( 3) = (    -1          0          0      )
                  (     0         -1          0      )
                  (     0          0         -1      )

 cart.    s( 3) = ( -1.0000000  0.0000000  0.0000000 )
                  (  0.0000000 -1.0000000  0.0000000 )
                  (  0.0000000  0.0000000 -1.0000000 )


      isym =  4     inv. 180 deg rotation - cart. axis [1,0,0]   

 Time Reversal            1
 cryst.   s( 4) = (     0          0          1      )
                  (     0          1          0      )
                  (     1          0          0      )

 cart.    s( 4) = ( -1.0000000  0.0000000  0.0000000 )
                  (  0.0000000  1.0000000  0.0000000 )
                  (  0.0000000  0.0000000  1.0000000 )


   Cartesian axes

     site n.     atom                  positions (alat units)
         1           Mn1 tau(   1) = (   0.0000000   0.0000000   0.0000000  )
         2           Mn2 tau(   2) = (   0.0000000   0.0000000   1.4937321  )
         3           Bi  tau(   3) = (   0.0000000   0.0000000   0.6346867  )
         4           Bi  tau(   4) = (   0.0000000   0.0000000   2.1284188  )
         5           Bi  tau(   5) = (   0.0000000   0.0000000   0.8590453  )
         6           Bi  tau(   6) = (   0.0000000   0.0000000   2.3527773  )
         7           Te  tau(   7) = (   0.0000000   0.0000000   0.1992041  )
         8           Te  tau(   8) = (   0.0000000   0.0000000   1.6929361  )
         9           Te  tau(   9) = (   0.0000000   0.0000000   1.2945279  )
        10           Te  tau(  10) = (   0.0000000   0.0000000   2.7882600  )
        11           Te  tau(  11) = (   0.0000000   0.0000000   0.4392469  )
        12           Te  tau(  12) = (   0.0000000   0.0000000   1.9329789  )
        13           Te  tau(  13) = (   0.0000000   0.0000000   1.0544852  )
        14           Te  tau(  14) = (   0.0000000   0.0000000   2.5482172  )

     --------------------------------------------
     DFT-D3 Dispersion Correction (3-body terms):
     --------------------------------------------
       Reference C6 values for interpolation: 

         atom   Coordination number   C6
         Mn1        0.000          1605.50
         Mn1        1.641           479.11
         Mn1        9.885           227.69
         Mn2        0.000          1605.50
         Mn2        1.641           479.11
         Mn2        9.885           227.69
         Te         0.000           851.07
         Te         0.981           850.20
         Te         1.964           837.16
         Bi         0.000          1235.06
         Bi         0.982          1188.09
         Bi         1.966          1132.10
         Bi         2.950          1067.76

       Values used:

         atom   Coordination number  R0_AB[au]  C6      C8
         Mn1        3.848            3.351    479.11  48433.79
         Mn2        3.848            3.351    479.11  48433.79
         Bi         5.275            3.890   1067.76 147315.96
         Bi         5.275            3.890   1067.76 147315.96
         Bi         5.275            3.890   1067.76 147315.96
         Bi         5.275            3.890   1067.76 147315.96
         Te         3.328            3.676    837.16  84978.06
         Te         3.328            3.676    837.16  84978.06
         Te         3.328            3.676    837.16  84978.06
         Te         3.328            3.676    837.16  84978.06
         Te         4.238            3.676    837.16  84978.05
         Te         4.238            3.676    837.16  84978.05
         Te         4.238            3.676    837.16  84978.05
         Te         4.238            3.676    837.16  84978.05

         Molecular C6 ( Ry / a.u.^6 ) =    164642.77


   Crystallographic axes

     site n.     atom                  positions (cryst. coord.)
         1           Mn1 tau(   1) = (  0.0000000  0.0000000  0.0000000  )
         2           Mn2 tau(   2) = (  0.4999980  0.5000035  0.4999980  )
         3           Bi  tau(   3) = (  0.2124492  0.2124515  0.2124492  )
         4           Bi  tau(   4) = (  0.7124472  0.7124550  0.7124472  )
         5           Bi  tau(   5) = (  0.2875489  0.2875520  0.2875489  )
         6           Bi  tau(   6) = (  0.7875469  0.7875555  0.7875469  )
         7           Te  tau(   7) = (  0.0666798  0.0666805  0.0666798  )
         8           Te  tau(   8) = (  0.5666778  0.5666840  0.5666778  )
         9           Te  tau(   9) = (  0.4333183  0.4333230  0.4333183  )
        10           Te  tau(  10) = (  0.9333163  0.9333266  0.9333163  )
        11           Te  tau(  11) = (  0.1470294  0.1470310  0.1470294  )
        12           Te  tau(  12) = (  0.6470274  0.6470345  0.6470274  )
        13           Te  tau(  13) = (  0.3529686  0.3529725  0.3529686  )
        14           Te  tau(  14) = (  0.8529666  0.8529760  0.8529666  )

     number of k points=    24  Marzari-Vanderbilt smearing, width (Ry)=  0.0100
                       cart. coord. in units 2pi/alat
        k(    1) = (   0.0000000   0.0000000   0.0000000), wk =   0.0156250
        k(    2) = (  -1.5805784  -0.9125490   0.0836827), wk =   0.0625000
        k(    3) = (   3.1611569   1.8250979  -0.1673654), wk =   0.0312500
        k(    4) = (   0.0000000   1.8250979   0.0836836), wk =   0.0312500
        k(    5) = (  -1.5805784   0.9125490   0.1673663), wk =   0.0625000
        k(    6) = (   3.1611569   3.6501959  -0.0836818), wk =   0.0625000
        k(    7) = (   1.5805784   2.7376469   0.0000009), wk =   0.0625000
        k(    8) = (   0.0000000  -3.6501959  -0.1673672), wk =   0.0156250
        k(    9) = (  -1.5805784  -4.5627449  -0.0836845), wk =   0.0625000
        k(   10) = (   3.1611569  -1.8250979  -0.3347326), wk =   0.0312500
        k(   11) = (   0.0000000  -1.8250979   0.1673654), wk =   0.0312500
        k(   12) = (   4.7417353   0.9125490  -0.0836827), wk =   0.0625000
        k(   13) = (   3.1611569   0.0000000   0.0000000), wk =   0.0312500
        k(   14) = (   0.0000000   0.0000000   0.2510490), wk =   0.0312500
        k(   15) = (   4.7417353   2.7376469   0.0000009), wk =   0.0625000
        k(   16) = (   3.1611569   1.8250979   0.0836836), wk =   0.0625000
        k(   17) = (   0.0000000  -5.4752938  -0.0000018), wk =   0.0312500
        k(   18) = (   4.7417353  -2.7376469  -0.2510499), wk =   0.0625000
        k(   19) = (   3.1611569  -3.6501959  -0.1673672), wk =   0.0312500
        k(   20) = (   0.0000000  -3.6501959   0.0836818), wk =   0.0312500
        k(   21) = (   4.7417353  -0.9125490  -0.1673663), wk =   0.0625000
        k(   22) = (   0.0000000   3.6501959  -0.3347307), wk =   0.0156250
        k(   23) = (   0.0000000   5.4752938  -0.2510471), wk =   0.0312500
        k(   24) = (   0.0000000   0.0000000  -0.5020979), wk =   0.0156250

                       cryst. coord.
        k(    1) = (   0.0000000   0.0000000   0.0000000), wk =   0.0156250
        k(    2) = (   0.0000000   0.0000000   0.2500000), wk =   0.0625000
        k(    3) = (  -0.0000000   0.0000000  -0.5000000), wk =   0.0312500
        k(    4) = (   0.0000000   0.2500000   0.0000000), wk =   0.0312500
        k(    5) = (   0.0000000   0.2500000   0.2500000), wk =   0.0625000
        k(    6) = (  -0.0000000   0.2500000  -0.5000000), wk =   0.0625000
        k(    7) = (  -0.0000000   0.2500000  -0.2500000), wk =   0.0625000
        k(    8) = (   0.0000000  -0.5000000   0.0000000), wk =   0.0156250
        k(    9) = (   0.0000000  -0.5000000   0.2500000), wk =   0.0625000
        k(   10) = (  -0.0000000  -0.5000000  -0.5000000), wk =   0.0312500
        k(   11) = (   0.2500000   0.0000000   0.2500000), wk =   0.0312500
        k(   12) = (   0.2500000   0.0000000  -0.5000000), wk =   0.0625000
        k(   13) = (   0.2500000   0.0000000  -0.2500000), wk =   0.0312500
        k(   14) = (   0.2500000   0.2500000   0.2500000), wk =   0.0312500
        k(   15) = (   0.2500000   0.2500000  -0.5000000), wk =   0.0625000
        k(   16) = (   0.2500000   0.2500000  -0.2500000), wk =   0.0625000
        k(   17) = (   0.2500000  -0.5000000   0.2500000), wk =   0.0312500
        k(   18) = (   0.2500000  -0.5000000  -0.5000000), wk =   0.0625000
        k(   19) = (   0.2500000  -0.5000000  -0.2500000), wk =   0.0312500
        k(   20) = (   0.2500000  -0.2500000   0.2500000), wk =   0.0312500
        k(   21) = (   0.2500000  -0.2500000  -0.5000000), wk =   0.0625000
        k(   22) = (  -0.5000000   0.0000000  -0.5000000), wk =   0.0156250
        k(   23) = (  -0.5000000   0.2500000  -0.5000000), wk =   0.0312500
        k(   24) = (  -0.5000000  -0.5000000  -0.5000000), wk =   0.0156250

     Dense  grid:   564899 G-vectors     FFT dimensions: ( 375, 375, 375)

     Smooth grid:   187971 G-vectors     FFT dimensions: ( 256, 256, 256)

     Dynamical RAM for                 wfc:       2.48 MB

     Dynamical RAM for     wfc (w. buffer):      61.93 MB

     Dynamical RAM for           str. fact:       0.72 MB

     Dynamical RAM for           local pot:       0.00 MB

     Dynamical RAM for          nlocal pot:       3.55 MB

     Dynamical RAM for                qrad:      18.80 MB

     Dynamical RAM for          rho,v,vnew:     105.15 MB

     Dynamical RAM for               rhoin:      35.05 MB

     Dynamical RAM for            rho*nmix:      11.49 MB

     Dynamical RAM for           G-vectors:       0.70 MB

     Dynamical RAM for          h,s,v(r/c):       1.26 MB

     Dynamical RAM for          <psi|beta>:       2.41 MB

     Dynamical RAM for                 psi:       4.95 MB

     Dynamical RAM for                hpsi:       4.95 MB

     Dynamical RAM for                spsi:       4.95 MB

     Dynamical RAM for      wfcinit/wfcrot:       4.35 MB

     Dynamical RAM for           addusdens:     111.52 MB

     Dynamical RAM for          addusforce:     114.29 MB

     Estimated static dynamical RAM per process >     295.47 MB

     Estimated max dynamical RAM per process >     421.25 MB

     Estimated total dynamical RAM >      19.75 GB
     Generating pointlists ...
     new r_m :   0.0448 (alat units)  2.3181 (a.u.) for type    1
     new r_m :   0.0448 (alat units)  2.3181 (a.u.) for type    2
     new r_m :   0.0456 (alat units)  2.3625 (a.u.) for type    3
     new r_m :   0.0448 (alat units)  2.3181 (a.u.) for type    4
     Cannot read rho : file not found

     Initial potential from superposition of free atoms

     starting charge     137.9938, renormalised to     138.0000

 ==============================================================================
     atom number    1 relative position :    0.0000   0.0000   0.0000
     charge :    13.702448  (integrated on a sphere of radius 0.045)
     magnetization :         -0.000000    0.000000    4.474621
     magnetization/charge:   -0.000000    0.000000    0.326556
     polar coord.: r, theta, phi [deg] :     4.474621    0.000000  360.000000

 ==============================================================================

 ==============================================================================
     atom number    2 relative position :    0.0000   0.0000   1.4937
     charge :    13.702543  (integrated on a sphere of radius 0.045)
     magnetization :          0.000000    0.000000   -4.474646
     magnetization/charge:    0.000000    0.000000   -0.326556
     polar coord.: r, theta, phi [deg] :     4.474646  180.000000  360.000000

 ==============================================================================

 ==============================================================================
     atom number    3 relative position :    0.0000   0.0000   0.6347
     charge :    12.835126  (integrated on a sphere of radius 0.046)
     magnetization :          0.000000    0.000000   -0.000781
     magnetization/charge:    0.000000    0.000000   -0.000061
     polar coord.: r, theta, phi [deg] :     0.000781  180.000000  360.000000

 ==============================================================================

 ==============================================================================
     atom number    4 relative position :    0.0000   0.0000   2.1284
     charge :    12.834981  (integrated on a sphere of radius 0.046)
     magnetization :          0.000000    0.000000    0.000781
     magnetization/charge:    0.000000    0.000000    0.000061
     polar coord.: r, theta, phi [deg] :     0.000781    0.000000  360.000000

 ==============================================================================

 ==============================================================================
     atom number    5 relative position :    0.0000   0.0000   0.8590
     charge :    12.834982  (integrated on a sphere of radius 0.046)
     magnetization :          0.000000    0.000000    0.000780
     magnetization/charge:    0.000000    0.000000    0.000061
     polar coord.: r, theta, phi [deg] :     0.000780    0.000000  360.000000

 ==============================================================================

 ==============================================================================
     atom number    6 relative position :    0.0000   0.0000   2.3528
     charge :    12.835126  (integrated on a sphere of radius 0.046)
     magnetization :          0.000000    0.000000   -0.000781
     magnetization/charge:    0.000000    0.000000   -0.000061
     polar coord.: r, theta, phi [deg] :     0.000781  180.000000  360.000000

 ==============================================================================

 ==============================================================================
     atom number    7 relative position :    0.0000   0.0000   0.1992
     charge :     3.754613  (integrated on a sphere of radius 0.045)
     magnetization :         -0.000000    0.000000    0.000018
     magnetization/charge:   -0.000000    0.000000    0.000005
     polar coord.: r, theta, phi [deg] :     0.000018    0.000000  360.000000

 ==============================================================================

 ==============================================================================
     atom number    8 relative position :    0.0000   0.0000   1.6929
     charge :     3.754777  (integrated on a sphere of radius 0.045)
     magnetization :          0.000000    0.000000   -0.000018
     magnetization/charge:    0.000000    0.000000   -0.000005
     polar coord.: r, theta, phi [deg] :     0.000018  180.000000  360.000000

 ==============================================================================

 ==============================================================================
     atom number    9 relative position :    0.0000   0.0000   1.2945
     charge :     3.754777  (integrated on a sphere of radius 0.045)
     magnetization :          0.000000    0.000000   -0.000018
     magnetization/charge:    0.000000    0.000000   -0.000005
     polar coord.: r, theta, phi [deg] :     0.000018  180.000000  360.000000

 ==============================================================================

 ==============================================================================
     atom number   10 relative position :    0.0000   0.0000   2.7883
     charge :     3.754614  (integrated on a sphere of radius 0.045)
     magnetization :         -0.000000    0.000000    0.000018
     magnetization/charge:   -0.000000    0.000000    0.000005
     polar coord.: r, theta, phi [deg] :     0.000018    0.000000  360.000000

 ==============================================================================

 ==============================================================================
     atom number   11 relative position :    0.0000   0.0000   0.4392
     charge :     3.788378  (integrated on a sphere of radius 0.045)
     magnetization :          0.000000    0.000000   -0.035315
     magnetization/charge:    0.000000    0.000000   -0.009322
     polar coord.: r, theta, phi [deg] :     0.035315  180.000000  360.000000

 ==============================================================================

 ==============================================================================
     atom number   12 relative position :    0.0000   0.0000   1.9330
     charge :     3.788242  (integrated on a sphere of radius 0.045)
     magnetization :          0.000000    0.000000    0.035312
     magnetization/charge:    0.000000    0.000000    0.009321
     polar coord.: r, theta, phi [deg] :     0.035312    0.000000  360.000000

 ==============================================================================

 ==============================================================================
     atom number   13 relative position :    0.0000   0.0000   1.0545
     charge :     3.788245  (integrated on a sphere of radius 0.045)
     magnetization :          0.000000    0.000000    0.035313
     magnetization/charge:    0.000000    0.000000    0.009322
     polar coord.: r, theta, phi [deg] :     0.035313    0.000000  360.000000

 ==============================================================================

 ==============================================================================
     atom number   14 relative position :    0.0000   0.0000   2.5482
     charge :     3.788379  (integrated on a sphere of radius 0.045)
     magnetization :          0.000000    0.000000   -0.035315
     magnetization/charge:    0.000000    0.000000   -0.009322
     polar coord.: r, theta, phi [deg] :     0.035315  180.000000  360.000000

 ==============================================================================
     Message from routine qexsd_readschema :
     xml data file ./tmp/MnBi2Te4.save/data-file-schema.xml not found
     Cannot read wfcs: file not found
     Starting wfcs are  176 randomized atomic wfcs
     Checking if some PAW data can be deallocated... 
       PAW data deallocated on   44 nodes for type:  1
       PAW data deallocated on   44 nodes for type:  2
       PAW data deallocated on   32 nodes for type:  3
       PAW data deallocated on   24 nodes for type:  4

     total cpu time spent up to now is      660.4 secs

     Self-consistent Calculation

     iteration #  1     ecut=    60.00 Ry     beta= 0.20
     Davidson diagonalization with overlap

---- Real-time Memory Report at c_bands before calling an iterative solver
           553 MiB given to the printing process from OS
             0 MiB allocation reported by mallinfo(arena+hblkhd)
        235693 MiB available memory on the node where the printing process lives
------------------
     c_bands:  2 eigenvalues not converged
     c_bands:  2 eigenvalues not converged
     c_bands:  2 eigenvalues not converged
     c_bands:  2 eigenvalues not converged
     c_bands:  2 eigenvalues not converged
     c_bands:  4 eigenvalues not converged
     c_bands:  2 eigenvalues not converged
     c_bands:  1 eigenvalues not converged
     c_bands:  2 eigenvalues not converged
     c_bands:  1 eigenvalues not converged
     c_bands:  4 eigenvalues not converged
     c_bands:  1 eigenvalues not converged
     c_bands:  4 eigenvalues not converged
     c_bands:  3 eigenvalues not converged
     c_bands:  4 eigenvalues not converged
     c_bands:  4 eigenvalues not converged
     c_bands:  4 eigenvalues not converged
     c_bands:  3 eigenvalues not converged
     c_bands:  4 eigenvalues not converged
     c_bands:  2 eigenvalues not converged
     c_bands:  4 eigenvalues not converged
     ethr =  1.00E-05,  avg # of iterations = 21.6

 ==============================================================================
     atom number    1 relative position :    0.0000   0.0000   0.0000
     charge :    13.805190  (integrated on a sphere of radius 0.045)
     magnetization :         -0.000000    0.000005    4.388639
     magnetization/charge:   -0.000000    0.000000    0.317898
     polar coord.: r, theta, phi [deg] :     4.388639    0.000069   90.000000

 ==============================================================================

 ==============================================================================
     atom number    2 relative position :    0.0000   0.0000   1.4937
     charge :    13.805280  (integrated on a sphere of radius 0.045)
     magnetization :          0.000000   -0.000003   -4.388654
     magnetization/charge:    0.000000   -0.000000   -0.317897
     polar coord.: r, theta, phi [deg] :     4.388654  179.999959  -90.000000

 ==============================================================================

 ==============================================================================
     atom number    3 relative position :    0.0000   0.0000   0.6347
     charge :    12.744016  (integrated on a sphere of radius 0.046)
     magnetization :          0.000000    0.000001   -0.003589
     magnetization/charge:    0.000000    0.000000   -0.000282
     polar coord.: r, theta, phi [deg] :     0.003589  179.981541   90.000000

 ==============================================================================

 ==============================================================================
     atom number    4 relative position :    0.0000   0.0000   2.1284
     charge :    12.743877  (integrated on a sphere of radius 0.046)
     magnetization :          0.000000    0.000001    0.003589
     magnetization/charge:    0.000000    0.000000    0.000282
     polar coord.: r, theta, phi [deg] :     0.003589    0.023366   90.000000

 ==============================================================================

 ==============================================================================
     atom number    5 relative position :    0.0000   0.0000   0.8590
     charge :    12.743878  (integrated on a sphere of radius 0.046)
     magnetization :         -0.000000    0.000001    0.003588
     magnetization/charge:   -0.000000    0.000000    0.000282
     polar coord.: r, theta, phi [deg] :     0.003588    0.023343   90.000000

 ==============================================================================

 ==============================================================================
     atom number    6 relative position :    0.0000   0.0000   2.3528
     charge :    12.744017  (integrated on a sphere of radius 0.046)
     magnetization :          0.000000    0.000001   -0.003589
     magnetization/charge:    0.000000    0.000000   -0.000282
     polar coord.: r, theta, phi [deg] :     0.003589  179.981518   90.000000

 ==============================================================================

 ==============================================================================
     atom number    7 relative position :    0.0000   0.0000   0.1992
     charge :     3.768932  (integrated on a sphere of radius 0.045)
     magnetization :          0.000000   -0.000000    0.008839
     magnetization/charge:    0.000000   -0.000000    0.002345
     polar coord.: r, theta, phi [deg] :     0.008839    0.001397  -90.000000

 ==============================================================================

 ==============================================================================
     atom number    8 relative position :    0.0000   0.0000   1.6929
     charge :     3.769094  (integrated on a sphere of radius 0.045)
     magnetization :         -0.000000   -0.000001   -0.008837
     magnetization/charge:   -0.000000   -0.000000   -0.002345
     polar coord.: r, theta, phi [deg] :     0.008837  179.995567  -90.000000

 ==============================================================================

 ==============================================================================
     atom number    9 relative position :    0.0000   0.0000   1.2945
     charge :     3.769093  (integrated on a sphere of radius 0.045)
     magnetization :         -0.000000   -0.000001   -0.008837
     magnetization/charge:   -0.000000   -0.000000   -0.002345
     polar coord.: r, theta, phi [deg] :     0.008837  179.995587  -90.000000

 ==============================================================================

 ==============================================================================
     atom number   10 relative position :    0.0000   0.0000   2.7883
     charge :     3.768931  (integrated on a sphere of radius 0.045)
     magnetization :         -0.000000   -0.000000    0.008839
     magnetization/charge:   -0.000000   -0.000000    0.002345
     polar coord.: r, theta, phi [deg] :     0.008839    0.001418  -90.000000

 ==============================================================================

 ==============================================================================
     atom number   11 relative position :    0.0000   0.0000   0.4392
     charge :     3.818059  (integrated on a sphere of radius 0.045)
     magnetization :          0.000000    0.000003   -0.048970
     magnetization/charge:    0.000000    0.000001   -0.012826
     polar coord.: r, theta, phi [deg] :     0.048970  179.996718   90.000000

 ==============================================================================

 ==============================================================================
     atom number   12 relative position :    0.0000   0.0000   1.9330
     charge :     3.817919  (integrated on a sphere of radius 0.045)
     magnetization :         -0.000000   -0.000002    0.048967
     magnetization/charge:   -0.000000   -0.000001    0.012826
     polar coord.: r, theta, phi [deg] :     0.048967    0.002314  -90.000000

 ==============================================================================

 ==============================================================================
     atom number   13 relative position :    0.0000   0.0000   1.0545
     charge :     3.817922  (integrated on a sphere of radius 0.045)
     magnetization :         -0.000000   -0.000002    0.048968
     magnetization/charge:   -0.000000   -0.000001    0.012826
     polar coord.: r, theta, phi [deg] :     0.048968    0.002301  -90.000000

 ==============================================================================

 ==============================================================================
     atom number   14 relative position :    0.0000   0.0000   2.5482
     charge :     3.818060  (integrated on a sphere of radius 0.045)
     magnetization :          0.000000    0.000003   -0.048970
     magnetization/charge:    0.000000    0.000001   -0.012826
     polar coord.: r, theta, phi [deg] :     0.048970  179.996731   90.000000

 ==============================================================================

     total cpu time spent up to now is     6347.7 secs

     total energy              =   -7140.35247839 Ry
     estimated scf accuracy    <       1.42141302 Ry

     total magnetization       =    -0.00     0.00     0.00 Bohr mag/cell
     absolute magnetization    =     9.50 Bohr mag/cell

     iteration #  2     ecut=    60.00 Ry     beta= 0.20
     Davidson diagonalization with overlap

---- Real-time Memory Report at c_bands before calling an iterative solver
           820 MiB given to the printing process from OS
             0 MiB allocation reported by mallinfo(arena+hblkhd)
        233078 MiB available memory on the node where the printing process lives
------------------
     ethr =  1.03E-03,  avg # of iterations =  3.8

 ==============================================================================
     atom number    1 relative position :    0.0000   0.0000   0.0000
     charge :    13.747828  (integrated on a sphere of radius 0.045)
     magnetization :          0.000000    0.000006    4.377180
     magnetization/charge:    0.000000    0.000000    0.318391
     polar coord.: r, theta, phi [deg] :     4.377180    0.000079   90.000000

 ==============================================================================

 ==============================================================================
     atom number    2 relative position :    0.0000   0.0000   1.4937
     charge :    13.747908  (integrated on a sphere of radius 0.045)
     magnetization :          0.000000   -0.000006   -4.377185
     magnetization/charge:    0.000000   -0.000000   -0.318389
     polar coord.: r, theta, phi [deg] :     4.377185  179.999917  -90.000000

 ==============================================================================

 ==============================================================================
     atom number    3 relative position :    0.0000   0.0000   0.6347
     charge :    12.737455  (integrated on a sphere of radius 0.046)
     magnetization :          0.000000    0.000006   -0.005752
     magnetization/charge:    0.000000    0.000000   -0.000452
     polar coord.: r, theta, phi [deg] :     0.005752  179.939094   90.000000

 ==============================================================================

 ==============================================================================
     atom number    4 relative position :    0.0000   0.0000   2.1284
     charge :    12.737309  (integrated on a sphere of radius 0.046)
     magnetization :         -0.000000    0.000004    0.005746
     magnetization/charge:   -0.000000    0.000000    0.000451
     polar coord.: r, theta, phi [deg] :     0.005746    0.037004   90.000000

 ==============================================================================

 ==============================================================================
     atom number    5 relative position :    0.0000   0.0000   0.8590
     charge :    12.737311  (integrated on a sphere of radius 0.046)
     magnetization :          0.000000    0.000004    0.005746
     magnetization/charge:    0.000000    0.000000    0.000451
     polar coord.: r, theta, phi [deg] :     0.005746    0.036904   90.000000

 ==============================================================================

 ==============================================================================
     atom number    6 relative position :    0.0000   0.0000   2.3528
     charge :    12.737455  (integrated on a sphere of radius 0.046)
     magnetization :          0.000000    0.000006   -0.005752
     magnetization/charge:    0.000000    0.000000   -0.000452
     polar coord.: r, theta, phi [deg] :     0.005752  179.938994   90.000000

 ==============================================================================

 ==============================================================================
     atom number    7 relative position :    0.0000   0.0000   0.1992
     charge :     3.797137  (integrated on a sphere of radius 0.045)
     magnetization :          0.000000    0.000002    0.009985
     magnetization/charge:    0.000000    0.000001    0.002630
     polar coord.: r, theta, phi [deg] :     0.009985    0.014004   90.000000

 ==============================================================================

 ==============================================================================
     atom number    8 relative position :    0.0000   0.0000   1.6929
     charge :     3.797307  (integrated on a sphere of radius 0.045)
     magnetization :         -0.000000    0.000005   -0.009992
     magnetization/charge:   -0.000000    0.000001   -0.002631
     polar coord.: r, theta, phi [deg] :     0.009992  179.968617   90.000000

 ==============================================================================

 ==============================================================================
     atom number    9 relative position :    0.0000   0.0000   1.2945
     charge :     3.797306  (integrated on a sphere of radius 0.045)
     magnetization :          0.000000    0.000005   -0.009992
     magnetization/charge:    0.000000    0.000001   -0.002631
     polar coord.: r, theta, phi [deg] :     0.009992  179.968607   90.000000

 ==============================================================================

 ==============================================================================
     atom number   10 relative position :    0.0000   0.0000   2.7883
     charge :     3.797136  (integrated on a sphere of radius 0.045)
     magnetization :         -0.000000    0.000002    0.009986
     magnetization/charge:   -0.000000    0.000001    0.002630
     polar coord.: r, theta, phi [deg] :     0.009986    0.013995   90.000000

 ==============================================================================

 ==============================================================================
     atom number   11 relative position :    0.0000   0.0000   0.4392
     charge :     3.809551  (integrated on a sphere of radius 0.045)
     magnetization :          0.000000   -0.000006   -0.039846
     magnetization/charge:    0.000000   -0.000002   -0.010459
     polar coord.: r, theta, phi [deg] :     0.039846  179.991382  -90.000000

 ==============================================================================

 ==============================================================================
     atom number   12 relative position :    0.0000   0.0000   1.9330
     charge :     3.809422  (integrated on a sphere of radius 0.045)
     magnetization :          0.000000   -0.000007    0.039850
     magnetization/charge:    0.000000   -0.000002    0.010461
     polar coord.: r, theta, phi [deg] :     0.039850    0.010727  -90.000000

 ==============================================================================

 ==============================================================================
     atom number   13 relative position :    0.0000   0.0000   1.0545
     charge :     3.809425  (integrated on a sphere of radius 0.045)
     magnetization :         -0.000000   -0.000007    0.039851
     magnetization/charge:   -0.000000   -0.000002    0.010461
     polar coord.: r, theta, phi [deg] :     0.039851    0.010713  -90.000000

 ==============================================================================

 ==============================================================================
     atom number   14 relative position :    0.0000   0.0000   2.5482
     charge :     3.809552  (integrated on a sphere of radius 0.045)
     magnetization :          0.000000   -0.000006   -0.039846
     magnetization/charge:    0.000000   -0.000002   -0.010459
     polar coord.: r, theta, phi [deg] :     0.039846  179.991369  -90.000000

 ==============================================================================

     total cpu time spent up to now is     8156.8 secs

     total energy              =   -7140.41880916 Ry
     estimated scf accuracy    <       3.33482839 Ry

     total magnetization       =    -0.00     0.00    -0.00 Bohr mag/cell
     absolute magnetization    =     9.74 Bohr mag/cell

     iteration #  3     ecut=    60.00 Ry     beta= 0.20
     Davidson diagonalization with overlap

---- Real-time Memory Report at c_bands before calling an iterative solver
           826 MiB given to the printing process from OS
             0 MiB allocation reported by mallinfo(arena+hblkhd)
        232985 MiB available memory on the node where the printing process lives
------------------
     ethr =  1.03E-03,  avg # of iterations =  2.0

 ==============================================================================
     atom number    1 relative position :    0.0000   0.0000   0.0000
     charge :    13.721045  (integrated on a sphere of radius 0.045)
     magnetization :         -0.000000   -0.000022    4.374067
     magnetization/charge:   -0.000000   -0.000002    0.318785
     polar coord.: r, theta, phi [deg] :     4.374067    0.000292  -90.000000

 ==============================================================================

 ==============================================================================
     atom number    2 relative position :    0.0000   0.0000   1.4937
     charge :    13.721101  (integrated on a sphere of radius 0.045)
     magnetization :          0.000000   -0.000027   -4.374113
     magnetization/charge:    0.000000   -0.000002   -0.318787
     polar coord.: r, theta, phi [deg] :     4.374113  179.999644  -90.000000

 ==============================================================================

 ==============================================================================
     atom number    3 relative position :    0.0000   0.0000   0.6347
     charge :    12.714977  (integrated on a sphere of radius 0.046)
     magnetization :          0.000000    0.000009   -0.007974
     magnetization/charge:    0.000000    0.000001   -0.000627
     polar coord.: r, theta, phi [deg] :     0.007974  179.937710   90.000000

 ==============================================================================

 ==============================================================================
     atom number    4 relative position :    0.0000   0.0000   2.1284
     charge :    12.714830  (integrated on a sphere of radius 0.046)
     magnetization :         -0.000000    0.000007    0.007974
     magnetization/charge:   -0.000000    0.000001    0.000627
     polar coord.: r, theta, phi [deg] :     0.007974    0.047607   90.000000

 ==============================================================================

 ==============================================================================
     atom number    5 relative position :    0.0000   0.0000   0.8590
     charge :    12.714831  (integrated on a sphere of radius 0.046)
     magnetization :         -0.000000    0.000007    0.007974
     magnetization/charge:   -0.000000    0.000001    0.000627
     polar coord.: r, theta, phi [deg] :     0.007974    0.047537   90.000000

 ==============================================================================

 ==============================================================================
     atom number    6 relative position :    0.0000   0.0000   2.3528
     charge :    12.714978  (integrated on a sphere of radius 0.046)
     magnetization :         -0.000000    0.000009   -0.007974
     magnetization/charge:   -0.000000    0.000001   -0.000627
     polar coord.: r, theta, phi [deg] :     0.007974  179.937639   90.000000

 ==============================================================================

 ==============================================================================
     atom number    7 relative position :    0.0000   0.0000   0.1992
     charge :     3.795829  (integrated on a sphere of radius 0.045)
     magnetization :          0.000000    0.000001    0.014057
     magnetization/charge:    0.000000    0.000000    0.003703
     polar coord.: r, theta, phi [deg] :     0.014057    0.004206   90.000000

 ==============================================================================

 ==============================================================================
     atom number    8 relative position :    0.0000   0.0000   1.6929
     charge :     3.795963  (integrated on a sphere of radius 0.045)
     magnetization :          0.000000    0.000001   -0.014065
     magnetization/charge:    0.000000    0.000000   -0.003705
     polar coord.: r, theta, phi [deg] :     0.014065  179.997257   90.000000

 ==============================================================================

 ==============================================================================
     atom number    9 relative position :    0.0000   0.0000   1.2945
     charge :     3.795961  (integrated on a sphere of radius 0.045)
     magnetization :         -0.000000    0.000001   -0.014065
     magnetization/charge:   -0.000000    0.000000   -0.003705
     polar coord.: r, theta, phi [deg] :     0.014065  179.997242   90.000000

 ==============================================================================

 ==============================================================================
     atom number   10 relative position :    0.0000   0.0000   2.7883
     charge :     3.795827  (integrated on a sphere of radius 0.045)
     magnetization :         -0.000000    0.000001    0.014057
     magnetization/charge:   -0.000000    0.000000    0.003703
     polar coord.: r, theta, phi [deg] :     0.014057    0.004191   90.000000

 ==============================================================================

 ==============================================================================
     atom number   11 relative position :    0.0000   0.0000   0.4392
     charge :     3.830207  (integrated on a sphere of radius 0.045)
     magnetization :          0.000000   -0.000006   -0.037732
     magnetization/charge:    0.000000   -0.000002   -0.009851
     polar coord.: r, theta, phi [deg] :     0.037732  179.990163  -90.000000

 ==============================================================================

 ==============================================================================
     atom number   12 relative position :    0.0000   0.0000   1.9330
     charge :     3.830045  (integrated on a sphere of radius 0.045)
     magnetization :          0.000000   -0.000016    0.037738
     magnetization/charge:    0.000000   -0.000004    0.009853
     polar coord.: r, theta, phi [deg] :     0.037738    0.024023  -90.000000

 ==============================================================================

 ==============================================================================
     atom number   13 relative position :    0.0000   0.0000   1.0545
     charge :     3.830047  (integrated on a sphere of radius 0.045)
     magnetization :          0.000000   -0.000016    0.037738
     magnetization/charge:    0.000000   -0.000004    0.009853
     polar coord.: r, theta, phi [deg] :     0.037738    0.024005  -90.000000

 ==============================================================================

 ==============================================================================
     atom number   14 relative position :    0.0000   0.0000   2.5482
     charge :     3.830207  (integrated on a sphere of radius 0.045)
     magnetization :          0.000000   -0.000006   -0.037732
     magnetization/charge:    0.000000   -0.000002   -0.009851
     polar coord.: r, theta, phi [deg] :     0.037732  179.990146  -90.000000

 ==============================================================================

     total cpu time spent up to now is     9777.4 secs

     total energy              =   -7140.67324716 Ry
     estimated scf accuracy    <       0.15004445 Ry

     total magnetization       =    -0.00    -0.00    -0.00 Bohr mag/cell
     absolute magnetization    =     9.86 Bohr mag/cell

     iteration #  4     ecut=    60.00 Ry     beta= 0.20
     Davidson diagonalization with overlap

---- Real-time Memory Report at c_bands before calling an iterative solver
           826 MiB given to the printing process from OS
             0 MiB allocation reported by mallinfo(arena+hblkhd)
        232980 MiB available memory on the node where the printing process lives
------------------
     ethr =  1.09E-04,  avg # of iterations =  2.9

 ==============================================================================
     atom number    1 relative position :    0.0000   0.0000   0.0000
     charge :    13.668830  (integrated on a sphere of radius 0.045)
     magnetization :          0.000000   -0.000001    4.363051
     magnetization/charge:    0.000000   -0.000000    0.319197
     polar coord.: r, theta, phi [deg] :     4.363051    0.000007  -90.000000

 ==============================================================================

 ==============================================================================
     atom number    2 relative position :    0.0000   0.0000   1.4937
     charge :    13.668853  (integrated on a sphere of radius 0.045)
     magnetization :          0.000000   -0.000008   -4.363058
     magnetization/charge:    0.000000   -0.000001   -0.319197
     polar coord.: r, theta, phi [deg] :     4.363058  179.999899  -90.000000

 ==============================================================================

 ==============================================================================
     atom number    3 relative position :    0.0000   0.0000   0.6347
     charge :    12.647537  (integrated on a sphere of radius 0.046)
     magnetization :         -0.000000    0.000006   -0.015652
     magnetization/charge:   -0.000000    0.000000   -0.001238
     polar coord.: r, theta, phi [deg] :     0.015652  179.978608   90.000000

 ==============================================================================

 ==============================================================================
     atom number    4 relative position :    0.0000   0.0000   2.1284
     charge :    12.647467  (integrated on a sphere of radius 0.046)
     magnetization :          0.000000    0.000009    0.015659
     magnetization/charge:    0.000000    0.000001    0.001238
     polar coord.: r, theta, phi [deg] :     0.015659    0.032499   90.000000

 ==============================================================================

 ==============================================================================
     atom number    5 relative position :    0.0000   0.0000   0.8590
     charge :    12.647469  (integrated on a sphere of radius 0.046)
     magnetization :         -0.000000    0.000009    0.015659
     magnetization/charge:   -0.000000    0.000001    0.001238
     polar coord.: r, theta, phi [deg] :     0.015659    0.032451   90.000000

 ==============================================================================

 ==============================================================================
     atom number    6 relative position :    0.0000   0.0000   2.3528
     charge :    12.647539  (integrated on a sphere of radius 0.046)
     magnetization :         -0.000000    0.000006   -0.015651
     magnetization/charge:   -0.000000    0.000000   -0.001238
     polar coord.: r, theta, phi [deg] :     0.015651  179.978559   90.000000

 ==============================================================================

 ==============================================================================
     atom number    7 relative position :    0.0000   0.0000   0.1992
     charge :     3.807072  (integrated on a sphere of radius 0.045)
     magnetization :         -0.000000   -0.000002    0.027768
     magnetization/charge:   -0.000000   -0.000000    0.007294
     polar coord.: r, theta, phi [deg] :     0.027768    0.003856  -90.000000

 ==============================================================================

 ==============================================================================
     atom number    8 relative position :    0.0000   0.0000   1.6929
     charge :     3.807274  (integrated on a sphere of radius 0.045)
     magnetization :         -0.000000   -0.000003   -0.027761
     magnetization/charge:   -0.000000   -0.000001   -0.007292
     polar coord.: r, theta, phi [deg] :     0.027761  179.993920  -90.000000

 ==============================================================================

 ==============================================================================
     atom number    9 relative position :    0.0000   0.0000   1.2945
     charge :     3.807270  (integrated on a sphere of radius 0.045)
     magnetization :         -0.000000   -0.000003   -0.027761
     magnetization/charge:   -0.000000   -0.000001   -0.007292
     polar coord.: r, theta, phi [deg] :     0.027761  179.993945  -90.000000

 ==============================================================================

 ==============================================================================
     atom number   10 relative position :    0.0000   0.0000   2.7883
     charge :     3.807068  (integrated on a sphere of radius 0.045)
     magnetization :          0.000000   -0.000002    0.027768
     magnetization/charge:    0.000000   -0.000000    0.007294
     polar coord.: r, theta, phi [deg] :     0.027768    0.003881  -90.000000

 ==============================================================================

 ==============================================================================
     atom number   11 relative position :    0.0000   0.0000   0.4392
     charge :     3.864443  (integrated on a sphere of radius 0.045)
     magnetization :          0.000000   -0.000007   -0.029791
     magnetization/charge:    0.000000   -0.000002   -0.007709
     polar coord.: r, theta, phi [deg] :     0.029791  179.986328  -90.000000

 ==============================================================================

 ==============================================================================
     atom number   12 relative position :    0.0000   0.0000   1.9330
     charge :     3.864452  (integrated on a sphere of radius 0.045)
     magnetization :         -0.000000   -0.000008    0.029803
     magnetization/charge:   -0.000000   -0.000002    0.007712
     polar coord.: r, theta, phi [deg] :     0.029803    0.015855  -90.000000

 ==============================================================================

 ==============================================================================
     atom number   13 relative position :    0.0000   0.0000   1.0545
     charge :     3.864453  (integrated on a sphere of radius 0.045)
     magnetization :         -0.000000   -0.000008    0.029803
     magnetization/charge:   -0.000000   -0.000002    0.007712
     polar coord.: r, theta, phi [deg] :     0.029803    0.015820  -90.000000

 ==============================================================================

 ==============================================================================
     atom number   14 relative position :    0.0000   0.0000   2.5482
     charge :     3.864443  (integrated on a sphere of radius 0.045)
     magnetization :          0.000000   -0.000007   -0.029791
     magnetization/charge:    0.000000   -0.000002   -0.007709
     polar coord.: r, theta, phi [deg] :     0.029791  179.986293  -90.000000

 ==============================================================================

     total cpu time spent up to now is    11467.2 secs

     total energy              =   -7140.69766968 Ry
     estimated scf accuracy    <       0.04467833 Ry

     total magnetization       =    -0.00    -0.00     0.00 Bohr mag/cell
     absolute magnetization    =     9.81 Bohr mag/cell

     iteration #  5     ecut=    60.00 Ry     beta= 0.20
     Davidson diagonalization with overlap

---- Real-time Memory Report at c_bands before calling an iterative solver
           826 MiB given to the printing process from OS
             0 MiB allocation reported by mallinfo(arena+hblkhd)
        232840 MiB available memory on the node where the printing process lives
------------------
     ethr =  3.24E-05,  avg # of iterations =  3.7

 ==============================================================================
     atom number    1 relative position :    0.0000   0.0000   0.0000
     charge :    13.674914  (integrated on a sphere of radius 0.045)
     magnetization :         -0.000000   -0.000001    4.356319
     magnetization/charge:   -0.000000   -0.000000    0.318563
     polar coord.: r, theta, phi [deg] :     4.356319    0.000016  -90.000000

 ==============================================================================

 ==============================================================================
     atom number    2 relative position :    0.0000   0.0000   1.4937
     charge :    13.675602  (integrated on a sphere of radius 0.045)
     magnetization :          0.000000   -0.000013   -4.356223
     magnetization/charge:    0.000000   -0.000001   -0.318540
     polar coord.: r, theta, phi [deg] :     4.356223  179.999823  -90.000000

 ==============================================================================

 ==============================================================================
     atom number    3 relative position :    0.0000   0.0000   0.6347
     charge :    12.651018  (integrated on a sphere of radius 0.046)
     magnetization :          0.000000    0.000005   -0.016645
     magnetization/charge:    0.000000    0.000000   -0.001316
     polar coord.: r, theta, phi [deg] :     0.016645  179.983801   90.000000

 ==============================================================================

 ==============================================================================
     atom number    4 relative position :    0.0000   0.0000   2.1284
     charge :    12.650646  (integrated on a sphere of radius 0.046)
     magnetization :          0.000000    0.000006    0.016724
     magnetization/charge:    0.000000    0.000000    0.001322
     polar coord.: r, theta, phi [deg] :     0.016724    0.020881   90.000000

 ==============================================================================

 ==============================================================================
     atom number    5 relative position :    0.0000   0.0000   0.8590
     charge :    12.650649  (integrated on a sphere of radius 0.046)
     magnetization :         -0.000000    0.000006    0.016724
     magnetization/charge:   -0.000000    0.000000    0.001322
     polar coord.: r, theta, phi [deg] :     0.016724    0.020833   90.000000

 ==============================================================================

 ==============================================================================
     atom number    6 relative position :    0.0000   0.0000   2.3528
     charge :    12.651021  (integrated on a sphere of radius 0.046)
     magnetization :         -0.000000    0.000005   -0.016645
     magnetization/charge:   -0.000000    0.000000   -0.001316
     polar coord.: r, theta, phi [deg] :     0.016645  179.983753   90.000000

 ==============================================================================

 ==============================================================================
     atom number    7 relative position :    0.0000   0.0000   0.1992
     charge :     3.805335  (integrated on a sphere of radius 0.045)
     magnetization :         -0.000000   -0.000004    0.030454
     magnetization/charge:   -0.000000   -0.000001    0.008003
     polar coord.: r, theta, phi [deg] :     0.030454    0.007106  -90.000000

 ==============================================================================

 ==============================================================================
     atom number    8 relative position :    0.0000   0.0000   1.6929
     charge :     3.805179  (integrated on a sphere of radius 0.045)
     magnetization :         -0.000000   -0.000008   -0.030469
     magnetization/charge:   -0.000000   -0.000002   -0.008007
     polar coord.: r, theta, phi [deg] :     0.030469  179.985163  -90.000000

 ==============================================================================

 ==============================================================================
     atom number    9 relative position :    0.0000   0.0000   1.2945
     charge :     3.805174  (integrated on a sphere of radius 0.045)
     magnetization :          0.000000   -0.000008   -0.030469
     magnetization/charge:    0.000000   -0.000002   -0.008007
     polar coord.: r, theta, phi [deg] :     0.030469  179.985189  -90.000000

 ==============================================================================

 ==============================================================================
     atom number   10 relative position :    0.0000   0.0000   2.7883
     charge :     3.805331  (integrated on a sphere of radius 0.045)
     magnetization :         -0.000000   -0.000004    0.030454
     magnetization/charge:   -0.000000   -0.000001    0.008003
     polar coord.: r, theta, phi [deg] :     0.030454    0.007131  -90.000000

 ==============================================================================

 ==============================================================================
     atom number   11 relative position :    0.0000   0.0000   0.4392
     charge :     3.854602  (integrated on a sphere of radius 0.045)
     magnetization :          0.000000   -0.000007   -0.027700
     magnetization/charge:    0.000000   -0.000002   -0.007186
     polar coord.: r, theta, phi [deg] :     0.027700  179.984561  -90.000000

 ==============================================================================

 ==============================================================================
     atom number   12 relative position :    0.0000   0.0000   1.9330
     charge :     3.854036  (integrated on a sphere of radius 0.045)
     magnetization :          0.000000   -0.000005    0.027459
     magnetization/charge:    0.000000   -0.000001    0.007125
     polar coord.: r, theta, phi [deg] :     0.027459    0.010469  -90.000000

 ==============================================================================

 ==============================================================================
     atom number   13 relative position :    0.0000   0.0000   1.0545
     charge :     3.854037  (integrated on a sphere of radius 0.045)
     magnetization :          0.000000   -0.000005    0.027459
     magnetization/charge:    0.000000   -0.000001    0.007125
     polar coord.: r, theta, phi [deg] :     0.027459    0.010427  -90.000000

 ==============================================================================

 ==============================================================================
     atom number   14 relative position :    0.0000   0.0000   2.5482
     charge :     3.854602  (integrated on a sphere of radius 0.045)
     magnetization :          0.000000   -0.000007   -0.027700
     magnetization/charge:    0.000000   -0.000002   -0.007186
     polar coord.: r, theta, phi [deg] :     0.027700  179.984520  -90.000000

 ==============================================================================

     total cpu time spent up to now is    13384.1 secs

     total energy              =   -7140.70596851 Ry
     estimated scf accuracy    <       0.02061188 Ry

     total magnetization       =    -0.00    -0.00    -0.00 Bohr mag/cell
     absolute magnetization    =     9.76 Bohr mag/cell

     iteration #  6     ecut=    60.00 Ry     beta= 0.20
     Davidson diagonalization with overlap

---- Real-time Memory Report at c_bands before calling an iterative solver
           826 MiB given to the printing process from OS
             0 MiB allocation reported by mallinfo(arena+hblkhd)
        232611 MiB available memory on the node where the printing process lives
------------------
     ethr =  1.49E-05,  avg # of iterations =  3.6

 ==============================================================================
     atom number    1 relative position :    0.0000   0.0000   0.0000
     charge :    13.677155  (integrated on a sphere of radius 0.045)
     magnetization :         -0.000000    0.000001    4.350908
     magnetization/charge:   -0.000000    0.000000    0.318115
     polar coord.: r, theta, phi [deg] :     4.350908    0.000010   90.000000

 ==============================================================================

 ==============================================================================
     atom number    2 relative position :    0.0000   0.0000   1.4937
     charge :    13.675670  (integrated on a sphere of radius 0.045)
     magnetization :          0.000000   -0.000015   -4.350966
     magnetization/charge:    0.000000   -0.000001   -0.318154
     polar coord.: r, theta, phi [deg] :     4.350966  179.999806  -90.000000

 ==============================================================================

 ==============================================================================
     atom number    3 relative position :    0.0000   0.0000   0.6347
     charge :    12.649652  (integrated on a sphere of radius 0.046)
     magnetization :          0.000000    0.000003   -0.017858
     magnetization/charge:    0.000000    0.000000   -0.001412
     polar coord.: r, theta, phi [deg] :     0.017858  179.989680   90.000000

 ==============================================================================

 ==============================================================================
     atom number    4 relative position :    0.0000   0.0000   2.1284
     charge :    12.650085  (integrated on a sphere of radius 0.046)
     magnetization :          0.000000    0.000005    0.017771
     magnetization/charge:    0.000000    0.000000    0.001405
     polar coord.: r, theta, phi [deg] :     0.017771    0.015824   90.000000

 ==============================================================================

 ==============================================================================
     atom number    5 relative position :    0.0000   0.0000   0.8590
     charge :    12.650088  (integrated on a sphere of radius 0.046)
     magnetization :         -0.000000    0.000005    0.017771
     magnetization/charge:   -0.000000    0.000000    0.001405
     polar coord.: r, theta, phi [deg] :     0.017771    0.015777   90.000000

 ==============================================================================

 ==============================================================================
     atom number    6 relative position :    0.0000   0.0000   2.3528
     charge :    12.649655  (integrated on a sphere of radius 0.046)
     magnetization :         -0.000000    0.000003   -0.017858
     magnetization/charge:   -0.000000    0.000000   -0.001412
     polar coord.: r, theta, phi [deg] :     0.017858  179.989631   90.000000

 ==============================================================================

 ==============================================================================
     atom number    7 relative position :    0.0000   0.0000   0.1992
     charge :     3.802994  (integrated on a sphere of radius 0.045)
     magnetization :         -0.000000   -0.000005    0.033316
     magnetization/charge:   -0.000000   -0.000001    0.008760
     polar coord.: r, theta, phi [deg] :     0.033316    0.009422  -90.000000

 ==============================================================================

 ==============================================================================
     atom number    8 relative position :    0.0000   0.0000   1.6929
     charge :     3.803765  (integrated on a sphere of radius 0.045)
     magnetization :         -0.000000   -0.000010   -0.033221
     magnetization/charge:   -0.000000   -0.000003   -0.008734
     polar coord.: r, theta, phi [deg] :     0.033221  179.982233  -90.000000

 ==============================================================================

 ==============================================================================
     atom number    9 relative position :    0.0000   0.0000   1.2945
     charge :     3.803760  (integrated on a sphere of radius 0.045)
     magnetization :          0.000000   -0.000010   -0.033221
     magnetization/charge:    0.000000   -0.000003   -0.008734
     polar coord.: r, theta, phi [deg] :     0.033221  179.982260  -90.000000

 ==============================================================================

 ==============================================================================
     atom number   10 relative position :    0.0000   0.0000   2.7883
     charge :     3.802989  (integrated on a sphere of radius 0.045)
     magnetization :          0.000000   -0.000005    0.033316
     magnetization/charge:    0.000000   -0.000001    0.008760
     polar coord.: r, theta, phi [deg] :     0.033316    0.009448  -90.000000

 ==============================================================================

 ==============================================================================
     atom number   11 relative position :    0.0000   0.0000   0.4392
     charge :     3.848893  (integrated on a sphere of radius 0.045)
     magnetization :          0.000000   -0.000006   -0.025374
     magnetization/charge:    0.000000   -0.000001   -0.006593
     polar coord.: r, theta, phi [deg] :     0.025374  179.987212  -90.000000

 ==============================================================================

 ==============================================================================
     atom number   12 relative position :    0.0000   0.0000   1.9330
     charge :     3.849843  (integrated on a sphere of radius 0.045)
     magnetization :          0.000000   -0.000004    0.025924
     magnetization/charge:    0.000000   -0.000001    0.006734
     polar coord.: r, theta, phi [deg] :     0.025924    0.009068  -90.000000

 ==============================================================================

 ==============================================================================
     atom number   13 relative position :    0.0000   0.0000   1.0545
     charge :     3.849844  (integrated on a sphere of radius 0.045)
     magnetization :         -0.000000   -0.000004    0.025924
     magnetization/charge:   -0.000000   -0.000001    0.006734
     polar coord.: r, theta, phi [deg] :     0.025924    0.009020  -90.000000

 ==============================================================================

 ==============================================================================
     atom number   14 relative position :    0.0000   0.0000   2.5482
     charge :     3.848894  (integrated on a sphere of radius 0.045)
     magnetization :          0.000000   -0.000006   -0.025373
     magnetization/charge:    0.000000   -0.000001   -0.006592
     polar coord.: r, theta, phi [deg] :     0.025373  179.987164  -90.000000

 ==============================================================================

     total cpu time spent up to now is    15008.1 secs

     total energy              =   -7140.70803399 Ry
     estimated scf accuracy    <       0.00926276 Ry

     total magnetization       =    -0.00    -0.00     0.02 Bohr mag/cell
     absolute magnetization    =     9.80 Bohr mag/cell

     iteration #  7     ecut=    60.00 Ry     beta= 0.20
     Davidson diagonalization with overlap

---- Real-time Memory Report at c_bands before calling an iterative solver
           826 MiB given to the printing process from OS
             0 MiB allocation reported by mallinfo(arena+hblkhd)
        232593 MiB available memory on the node where the printing process lives
------------------
     c_bands:  1 eigenvalues not converged
     c_bands:  1 eigenvalues not converged
     c_bands:  2 eigenvalues not converged
     c_bands:  1 eigenvalues not converged
     c_bands:  1 eigenvalues not converged
     c_bands:  1 eigenvalues not converged
     ethr =  6.71E-06,  avg # of iterations = 13.1

 ==============================================================================
     atom number    1 relative position :    0.0000   0.0000   0.0000
     charge :    13.667198  (integrated on a sphere of radius 0.045)
     magnetization :         -0.000000    0.000014    4.340250
     magnetization/charge:   -0.000000    0.000001    0.317567
     polar coord.: r, theta, phi [deg] :     4.340250    0.000191   90.000000

 ==============================================================================

 ==============================================================================
     atom number    2 relative position :    0.0000   0.0000   1.4937
     charge :    13.667119  (integrated on a sphere of radius 0.045)
     magnetization :          0.000000   -0.000007   -4.340162
     magnetization/charge:    0.000000   -0.000001   -0.317562
     polar coord.: r, theta, phi [deg] :     4.340162  179.999902  -90.000000

 ==============================================================================

 ==============================================================================
     atom number    3 relative position :    0.0000   0.0000   0.6347
     charge :    12.638094  (integrated on a sphere of radius 0.046)
     magnetization :          0.000000    0.000000   -0.021020
     magnetization/charge:    0.000000    0.000000   -0.001663
     polar coord.: r, theta, phi [deg] :     0.021020  179.998781   90.000000

 ==============================================================================

 ==============================================================================
     atom number    4 relative position :    0.0000   0.0000   2.1284
     charge :    12.637871  (integrated on a sphere of radius 0.046)
     magnetization :          0.000000    0.000003    0.021141
     magnetization/charge:    0.000000    0.000000    0.001673
     polar coord.: r, theta, phi [deg] :     0.021141    0.008760   90.000000

 ==============================================================================

 ==============================================================================
     atom number    5 relative position :    0.0000   0.0000   0.8590
     charge :    12.637874  (integrated on a sphere of radius 0.046)
     magnetization :         -0.000000    0.000003    0.021140
     magnetization/charge:   -0.000000    0.000000    0.001673
     polar coord.: r, theta, phi [deg] :     0.021140    0.008713   90.000000

 ==============================================================================

 ==============================================================================
     atom number    6 relative position :    0.0000   0.0000   2.3528
     charge :    12.638097  (integrated on a sphere of radius 0.046)
     magnetization :         -0.000000    0.000000   -0.021020
     magnetization/charge:   -0.000000    0.000000   -0.001663
     polar coord.: r, theta, phi [deg] :     0.021020  179.998733   90.000000

 ==============================================================================

 ==============================================================================
     atom number    7 relative position :    0.0000   0.0000   0.1992
     charge :     3.798791  (integrated on a sphere of radius 0.045)
     magnetization :         -0.000000   -0.000008    0.041152
     magnetization/charge:   -0.000000   -0.000002    0.010833
     polar coord.: r, theta, phi [deg] :     0.041152    0.011573  -90.000000

 ==============================================================================

 ==============================================================================
     atom number    8 relative position :    0.0000   0.0000   1.6929
     charge :     3.798675  (integrated on a sphere of radius 0.045)
     magnetization :         -0.000000   -0.000011   -0.040897
     magnetization/charge:   -0.000000   -0.000003   -0.010766
     polar coord.: r, theta, phi [deg] :     0.040897  179.983924  -90.000000

 ==============================================================================

 ==============================================================================
     atom number    9 relative position :    0.0000   0.0000   1.2945
     charge :     3.798669  (integrated on a sphere of radius 0.045)
     magnetization :         -0.000000   -0.000011   -0.040897
     magnetization/charge:   -0.000000   -0.000003   -0.010766
     polar coord.: r, theta, phi [deg] :     0.040897  179.983952  -90.000000

 ==============================================================================

 ==============================================================================
     atom number   10 relative position :    0.0000   0.0000   2.7883
     charge :     3.798785  (integrated on a sphere of radius 0.045)
     magnetization :          0.000000   -0.000008    0.041152
     magnetization/charge:    0.000000   -0.000002    0.010833
     polar coord.: r, theta, phi [deg] :     0.041152    0.011601  -90.000000

 ==============================================================================

 ==============================================================================
     atom number   11 relative position :    0.0000   0.0000   0.4392
     charge :     3.847967  (integrated on a sphere of radius 0.045)
     magnetization :          0.000000   -0.000001   -0.020930
     magnetization/charge:    0.000000   -0.000000   -0.005439
     polar coord.: r, theta, phi [deg] :     0.020930  179.998219  -90.000000

 ==============================================================================

[...]
    -3.4878  -3.4875  -3.4028  -3.4027  -3.0765  -3.0763  -2.9802  -2.9801
    -1.6966  -1.6966  -1.5882  -1.5881  -1.3235  -1.3235  -1.2437  -1.2437
     3.1871   3.1873   3.3899   3.3901   3.5787   3.5788   3.6843   3.6846
     3.9715   3.9717   4.0627   4.0628   4.2692   4.2694   4.3140   4.3144
     4.3940   4.3941   4.6904   4.6908   4.7663   4.7665   4.8321   4.8323
     4.9435   4.9438   5.0908   5.0909   5.1622   5.1623   5.2999   5.3000
     5.3405   5.3406   5.7406   5.7407   5.7949   5.7950   5.9187   5.9188
     6.0561   6.0562   6.1621   6.1622   6.2909   6.2910   6.4701   6.4702
     6.5621   6.5622   6.7601   6.7601   7.1093   7.1095   7.2447   7.2447
     7.4792   7.4794   8.1695   8.1696   8.4727   8.4728   8.5716   8.5720
     8.7916   8.7916   8.9591   8.9592   8.9828   8.9829   9.1291   9.1293
     9.2041   9.2042   9.3325   9.3327   9.7311   9.7312   9.8826   9.8827
    10.0101  10.0102  10.1458  10.1459  10.3385  10.3388

     occupation numbers 
     1.0000   1.0000   1.0000   1.0000   1.0000   1.0000   1.0000   1.0000
     1.0000   1.0000   1.0000   1.0000   1.0000   1.0000   1.0000   1.0000
     1.0000   1.0000   1.0000   1.0000   1.0000   1.0000   1.0000   1.0000
     1.0000   1.0000   1.0000   1.0000   1.0000   1.0000   1.0000   1.0000
     1.0000   1.0000   1.0000   1.0000   1.0000   1.0000   1.0000   1.0000
     1.0000   1.0000   1.0000   1.0000   1.0000   1.0000   1.0000   1.0000
     1.0000   1.0000   1.0000   1.0000   1.0000   1.0000   1.0000   1.0000
     1.0000   1.0000   1.0000   1.0000   1.0000   1.0000   1.0000   1.0000
     1.0000   1.0000   1.0000   1.0000   1.0000   1.0000   1.0000   1.0000
     1.0000   1.0000   1.0000   1.0000   1.0000   1.0000   1.0000   1.0000
     1.0000   1.0000   1.0000   1.0000   1.0000   1.0000   1.0000   1.0000
     1.0000   1.0000   1.0000   1.0000   1.0000   1.0000   1.0000   1.0000
     1.0000   1.0000   1.0000   1.0000   1.0000   1.0000   1.0000   1.0000
     1.0000   1.0000   1.0000   1.0000   1.0000   1.0000   1.0000   1.0000
     1.0000   1.0000   1.0000   1.0000   1.0000   1.0000   1.0000   1.0000
     1.0000   1.0000   1.0000   1.0000   1.0000   1.0000   1.0000   1.0000
     1.0000   1.0000   1.0000   1.0000   1.0000   1.0000   1.0000   1.0000
     1.0428   1.0430   0.0000   0.0000   0.0000   0.0000   0.0000   0.0000
     0.0000   0.0000   0.0000   0.0000   0.0000   0.0000   0.0000   0.0000
     0.0000   0.0000   0.0000   0.0000   0.0000   0.0000   0.0000   0.0000
     0.0000   0.0000   0.0000   0.0000   0.0000   0.0000

          k = 0.0000 0.0000-0.5021 ( 23456 PWs)   bands (ev):

   -74.0023 -74.0019 -69.4320 -69.4315 -43.2546 -43.2542 -42.8436 -42.8432
   -42.3389 -42.3385 -38.6111 -38.6106 -38.1917 -38.1912 -37.8626 -37.8621
   -16.9720 -16.9720 -16.9712 -16.9710 -16.9644 -16.9642 -16.9636 -16.9631
   -16.9615 -16.9612 -16.9610 -16.9609 -16.9607 -16.9603 -16.9600 -16.9600
   -13.9947 -13.9946 -13.9940 -13.9936 -13.9869 -13.9868 -13.9861 -13.9858
   -13.9836 -13.9834 -13.9828 -13.9824 -13.9753 -13.9751 -13.9749 -13.9748
   -13.9748 -13.9746 -13.9744 -13.9743 -13.9741 -13.9740 -13.9738 -13.9736
    -5.5136  -5.5136  -5.5055  -5.5055  -5.2862  -5.2862  -5.2815  -5.2815
    -3.8258  -3.8254  -3.7619  -3.7618  -3.2642  -3.2639  -3.2333  -3.2332
    -1.3708  -1.3707  -1.3371  -1.3371  -0.6491  -0.6490  -0.6437  -0.6437
     3.6079   3.6082   3.9257   3.9260   4.2499   4.2503   4.2731   4.2734
     4.7518   4.7519   4.8006   4.8010   4.8144   4.8148   4.8796   4.8797
     5.0926   5.0928   5.3957   5.3959   5.4860   5.4863   5.6466   5.6468
     5.7586   5.7588   5.9291   5.9293   6.0746   6.0747   6.2553   6.2555
     6.2555   6.2557   6.3296   6.3296   6.3487   6.3487   6.6095   6.6096
     6.6582   6.6582   6.8577   6.8580   6.8816   6.8818   7.1178   7.1182
     7.1949   7.1955   7.2546   7.2547   7.4764   7.4765   7.6605   7.6606
     7.7315   7.7320   7.7779   7.7781   7.9366   7.9367   8.0146   8.0147
     8.0859   8.0859   8.6414   8.6418   8.6455   8.6459   8.8164   8.8168
     8.9430   8.9432   9.0962   9.0965   9.2343   9.2344   9.4975   9.4977
     9.4988   9.4988   9.5640   9.5640   9.6137   9.6138

     occupation numbers 
     1.0000   1.0000   1.0000   1.0000   1.0000   1.0000   1.0000   1.0000
     1.0000   1.0000   1.0000   1.0000   1.0000   1.0000   1.0000   1.0000
     1.0000   1.0000   1.0000   1.0000   1.0000   1.0000   1.0000   1.0000
     1.0000   1.0000   1.0000   1.0000   1.0000   1.0000   1.0000   1.0000
     1.0000   1.0000   1.0000   1.0000   1.0000   1.0000   1.0000   1.0000
     1.0000   1.0000   1.0000   1.0000   1.0000   1.0000   1.0000   1.0000
     1.0000   1.0000   1.0000   1.0000   1.0000   1.0000   1.0000   1.0000
     1.0000   1.0000   1.0000   1.0000   1.0000   1.0000   1.0000   1.0000
     1.0000   1.0000   1.0000   1.0000   1.0000   1.0000   1.0000   1.0000
     1.0000   1.0000   1.0000   1.0000   1.0000   1.0000   1.0000   1.0000
     1.0000   1.0000   1.0000   1.0000   1.0000   1.0000   1.0000   1.0000
     1.0000   1.0000   1.0000   1.0000   1.0000   1.0000   1.0000   1.0000
     1.0000   1.0000   1.0000   1.0000   1.0000   1.0000   1.0000   1.0000
     1.0000   1.0000   1.0000   1.0000   1.0000   1.0000   1.0000   1.0000
     1.0000   1.0000   1.0000   1.0000   1.0000   1.0000   1.0000   1.0000
     1.0000   1.0000   1.0000   1.0000   1.0000   1.0000   1.0000   1.0000
     1.0000   1.0000   1.0001   1.0001   1.0410   1.0411   0.8648   0.8646
     0.4914   0.4886   0.2672   0.2666   0.0067   0.0067   0.0004   0.0004
     0.0000   0.0000   0.0000   0.0000   0.0000   0.0000   0.0000   0.0000
     0.0000   0.0000   0.0000   0.0000   0.0000   0.0000   0.0000   0.0000
     0.0000   0.0000   0.0000   0.0000   0.0000   0.0000

     the Fermi energy is     7.7488 ev

!    total energy              =   -7140.71327907 Ry
     total all-electron energy =   -286038.779848 Ry
     estimated scf accuracy    <       0.00000093 Ry
     smearing contrib. (-TS)   =       0.00062786 Ry
     internal energy E=F+TS    =   -7140.71390693 Ry

     The total energy is F=E-TS. E is the sum of the following terms:
     one-electron contribution =    -652.75489320 Ry
     hartree contribution      =     404.19346665 Ry
     xc contribution           =    -317.81401648 Ry
     ewald contribution        =    -672.20615133 Ry
     DFT-D3 Dispersion         =      -0.28928761 Ry
     one-center paw contrib.   =   -5901.84302497 Ry
      -> PAW hartree energy AE =     162.41075808 Ry
      -> PAW hartree energy PS =    -163.49983862 Ry
      -> PAW xc energy AE      =    -103.86522738 Ry
      -> PAW xc energy PS      =      27.16257798 Ry
      -> total E_H with PAW    =     403.10438611 Ry
      -> total E_XC with PAW   =    -394.51666588 Ry

     total magnetization       =    -0.00     0.00     0.00 Bohr mag/cell
     absolute magnetization    =     9.88 Bohr mag/cell

     convergence has been achieved in  17 iterations

     Forces acting on atoms (cartesian axes, Ry/au):

     atom    1 type  1   force =     0.00000000    0.00000000    0.00000000
     atom    2 type  2   force =     0.00000000    0.00000000    0.00000000
     atom    3 type  3   force =     0.00000000    0.00000113   -0.01339060
     atom    4 type  3   force =     0.00000000   -0.00000146   -0.01341262
     atom    5 type  3   force =     0.00000000    0.00000146    0.01341262
     atom    6 type  3   force =     0.00000000   -0.00000113    0.01339060
     atom    7 type  4   force =     0.00000000    0.00000141    0.01360467
     atom    8 type  4   force =     0.00000000   -0.00000067    0.01367603
     atom    9 type  4   force =     0.00000000    0.00000067   -0.01367603
     atom   10 type  4   force =     0.00000000   -0.00000141   -0.01360467
     atom   11 type  4   force =     0.00000000    0.00000045    0.01895554
     atom   12 type  4   force =     0.00000000    0.00000148    0.01899284
     atom   13 type  4   force =     0.00000000   -0.00000148   -0.01899284
     atom   14 type  4   force =     0.00000000   -0.00000045   -0.01895554
     The non-local contrib.  to forces
     atom    1 type  1   force =     0.00000000    0.00000000    0.00000000
     atom    2 type  2   force =     0.00000000    0.00000000    0.00000000
     atom    3 type  3   force =     0.00000000   -0.00000498    0.16720316
     atom    4 type  3   force =     0.00000000    0.00000704    0.16715782
     atom    5 type  3   force =     0.00000000   -0.00000704   -0.16715782
     atom    6 type  3   force =     0.00000000    0.00000498   -0.16720316
     atom    7 type  4   force =     0.00000000   -0.00000002   -0.13455833
     atom    8 type  4   force =     0.00000000    0.00000062   -0.13447044
     atom    9 type  4   force =     0.00000000   -0.00000062    0.13447044
     atom   10 type  4   force =     0.00000000    0.00000002    0.13455833
     atom   11 type  4   force =     0.00000000    0.00000047   -0.00634676
     atom   12 type  4   force =     0.00000000    0.00000224   -0.00627896
     atom   13 type  4   force =     0.00000000   -0.00000224    0.00627896
     atom   14 type  4   force =     0.00000000   -0.00000047    0.00634676
     The ionic contribution  to forces
     atom    1 type  1   force =     0.00000000    0.00006822   -0.00021846
     atom    2 type  2   force =     0.00000000    0.00000000    0.00001949
     atom    3 type  3   force =     0.00000000    0.00004584   14.34904847
     atom    4 type  3   force =    -0.00000000   -0.00004607   14.34923343
     atom    5 type  3   force =     0.00000000    0.00003995  -14.34915323
     atom    6 type  3   force =    -0.00000000   -0.00004584  -14.34894820
     atom    7 type  4   force =     0.00000000    0.00003101    7.60875549
     atom    8 type  4   force =     0.00000000   -0.00002447    7.60883181
     atom    9 type  4   force =    -0.00000000    0.00002447   -7.60879210
     atom   10 type  4   force =    -0.00000000   -0.00003072   -7.60873811
     atom   11 type  4   force =    -0.00000000    0.00004716   -4.35896521
     atom   12 type  4   force =    -0.00000000   -0.00004787   -4.35895649
     atom   13 type  4   force =     0.00000000   -0.00001452    4.35888972
     atom   14 type  4   force =     0.00000000   -0.00004716    4.35899339
     The local contribution  to forces
     atom    1 type  1   force =    -0.00000000    0.00000000   -0.00000000
     atom    2 type  2   force =    -0.00000000   -0.00471586    0.00366215
     atom    3 type  3   force =     0.00000000   -0.00176259  -14.52396944
     atom    4 type  3   force =    -0.00000000   -0.00169199  -14.52552460
     atom    5 type  3   force =     0.00000000   -0.00175650   14.52855386
     atom    6 type  3   force =     0.00000000   -0.00168589   14.52699869
     atom    7 type  4   force =     0.00000000   -0.00006723   -7.48216532
     atom    8 type  4   force =    -0.00000000   -0.00001491   -7.48168704
     atom    9 type  4   force =     0.00000000   -0.00006095    7.48169773
     atom   10 type  4   force =    -0.00000000   -0.00000864    7.48217476
     atom   11 type  4   force =    -0.00000000   -0.00006764    4.38448506
     atom   12 type  4   force =    -0.00000000   -0.00000434    4.38475329
     atom   13 type  4   force =     0.00000000   -0.00003736   -4.38468129
     atom   14 type  4   force =     0.00000000    0.00002595   -4.38441307
     The core correction contribution to forces
     atom    1 type  1   force =    -0.00000000    0.00000000   -0.00000000
     atom    2 type  2   force =     0.00000000   -0.00005362    0.00004068
     atom    3 type  3   force =     0.00000000   -0.00008755   -0.00190036
     atom    4 type  3   force =     0.00000000   -0.00008766   -0.00189703
     atom    5 type  3   force =     0.00000000   -0.00008744    0.00204751
     atom    6 type  3   force =    -0.00000000   -0.00008754    0.00205085
     atom    7 type  4   force =     0.00000000    0.00000815    0.02268099
     atom    8 type  4   force =    -0.00000000    0.00000808    0.02267583
     atom    9 type  4   force =    -0.00000000    0.00000827   -0.02268943
     atom   10 type  4   force =    -0.00000000    0.00000821   -0.02269301
     atom   11 type  4   force =     0.00000000    0.00000834    0.00129107
     atom   12 type  4   force =    -0.00000000    0.00000821    0.00128442
     atom   13 type  4   force =     0.00000000    0.00000873   -0.00129834
     atom   14 type  4   force =    -0.00000000    0.00000860   -0.00130498
     The Hubbard contrib.    to forces
     atom    1 type  1   force =     0.00000000    0.00000000    0.00000000
     atom    2 type  2   force =     0.00000000    0.00000000    0.00000000
     atom    3 type  3   force =     0.00000000    0.00000000    0.00000000
     atom    4 type  3   force =     0.00000000    0.00000000    0.00000000
     atom    5 type  3   force =     0.00000000    0.00000000    0.00000000
     atom    6 type  3   force =     0.00000000    0.00000000    0.00000000
     atom    7 type  4   force =     0.00000000    0.00000000    0.00000000
     atom    8 type  4   force =     0.00000000    0.00000000    0.00000000
     atom    9 type  4   force =     0.00000000    0.00000000    0.00000000
     atom   10 type  4   force =     0.00000000    0.00000000    0.00000000
     atom   11 type  4   force =     0.00000000    0.00000000    0.00000000
     atom   12 type  4   force =     0.00000000    0.00000000    0.00000000
     atom   13 type  4   force =     0.00000000    0.00000000    0.00000000
     atom   14 type  4   force =     0.00000000    0.00000000    0.00000000
     The SCF correction term to forces
     atom    1 type  1   force =    -0.00000000    0.00000003   -0.00000011
     atom    2 type  2   force =     0.00000000   -0.00000183    0.00000145
     atom    3 type  3   force =     0.00000000   -0.00000182   -0.00088474
     atom    4 type  3   force =     0.00000000    0.00000183    0.00049549
     atom    5 type  3   force =    -0.00000000   -0.00000280   -0.00049458
     atom    6 type  3   force =    -0.00000000    0.00000084    0.00088566
     atom    7 type  4   force =    -0.00000000   -0.00000007    0.00023071
     atom    8 type  4   force =    -0.00000000    0.00000024   -0.00032419
     atom    9 type  4   force =     0.00000000   -0.00000023    0.00032418
     atom   10 type  4   force =     0.00000000    0.00000008   -0.00023073
     atom   11 type  4   force =     0.00000000   -0.00000020    0.00030690
     atom   12 type  4   force =     0.00000000   -0.00000037   -0.00004140
     atom   13 type  4   force =    -0.00000000    0.00000036    0.00004136
     atom   14 type  4   force =    -0.00000000    0.00000022   -0.00030688

     DFT-D3 dispersion contribution to forces:
     atom    1 type  1   force =     0.00000000   -0.00000006    0.00000006
     atom    2 type  2   force =     0.00000000    0.00000000    0.00000001
     atom    3 type  3   force =    -0.00000000   -0.00000005   -0.00124721
     atom    4 type  3   force =     0.00000000    0.00000005   -0.00124730
     atom    5 type  3   force =    -0.00000000   -0.00000005    0.00124729
     atom    6 type  3   force =     0.00000000    0.00000005    0.00124721
     atom    7 type  4   force =    -0.00000000   -0.00000004   -0.00133149
     atom    8 type  4   force =    -0.00000000    0.00000001   -0.00133154
     atom    9 type  4   force =    -0.00000000   -0.00000001    0.00133154
     atom   10 type  4   force =     0.00000000    0.00000004    0.00133148
     atom   11 type  4   force =    -0.00000000   -0.00000005   -0.00177238
     atom   12 type  4   force =     0.00000000    0.00000006   -0.00177239
     atom   13 type  4   force =    -0.00000000    0.00000000    0.00177236
     atom   14 type  4   force =     0.00000000    0.00000005    0.00177238

     Total force =     0.053877     Total SCF correction =     0.001602

     DFT-D3 dispersion Force =     0.005087

     Writing all to output data dir ./tmp/MnBi2Te4.save/
 
     init_run     :    638.30s CPU    657.90s WALL (       1 calls)
     electrons    :  34183.40s CPU  35182.91s WALL (       1 calls)
     forces       :     55.99s CPU     58.15s WALL (       1 calls)
     force_dftd3  :      0.50s CPU      0.60s WALL (       1 calls)

     Called by init_run:
     wfcinit      :    618.46s CPU    637.02s WALL (       1 calls)
     wfcinit:atom :      0.08s CPU      0.09s WALL (      24 calls)
     wfcinit:wfcr :    617.95s CPU    636.44s WALL (      24 calls)
     potinit      :     10.36s CPU     10.95s WALL (       1 calls)
     hinit0       :      4.37s CPU      4.52s WALL (       1 calls)

     Called by electrons:
     c_bands      :  27750.30s CPU  28568.72s WALL (      17 calls)
     sum_band     :   6195.04s CPU   6363.26s WALL (      17 calls)
     v_of_rho     :     72.30s CPU     77.99s WALL (      18 calls)
     v_h          :      1.99s CPU      2.09s WALL (      18 calls)
     v_xc         :     74.19s CPU     80.11s WALL (      19 calls)
     newd         :     74.46s CPU     78.49s WALL (      18 calls)
     PAW_pot      :     78.14s CPU     80.03s WALL (      18 calls)
     mix_rho      :     13.46s CPU     14.19s WALL (      17 calls)
     energy_dftd3 :      0.19s CPU      0.19s WALL (       1 calls)

     Called by c_bands:
     init_us_2    :      2.94s CPU      3.02s WALL (     864 calls)
     init_us_2:cp :      2.93s CPU      3.01s WALL (     864 calls)
     cegterg      :  27679.96s CPU  28496.95s WALL (     410 calls)

     Called by sum_band:
     sum_band:wei :      0.26s CPU      0.26s WALL (      17 calls)
     sum_band:loo :   6065.78s CPU   6226.71s WALL (      17 calls)
     sum_band:buf :      0.83s CPU      1.20s WALL (     408 calls)
     sum_band:ini :      1.44s CPU      1.48s WALL (     408 calls)
     sum_band:cal :     50.23s CPU     54.36s WALL (     408 calls)
     sum_band:bec :     25.92s CPU     26.21s WALL (     408 calls)
     addusdens    :    114.96s CPU    121.45s WALL (      17 calls)
                                        0.00s GPU  (      17 calls)
     addusd:skk   :      0.04s CPU      0.07s WALL (      68 calls)
                                        0.00s GPU  (      68 calls)

     Called by *egterg:
     cdiaghg      :    204.49s CPU    211.71s WALL (    2645 calls)
     cegterg:over :    124.62s CPU    129.79s WALL (    2237 calls)
     cegterg:upda :     92.80s CPU     95.14s WALL (    2237 calls)
     cegterg:last :    183.46s CPU    188.11s WALL (    1017 calls)
     cdiaghg:chol :     16.10s CPU     16.37s WALL (    2645 calls)
     cdiaghg:inve :      2.84s CPU      2.88s WALL (    2645 calls)
     cdiaghg:para :     53.15s CPU     57.69s WALL (    5290 calls)
     h_psi        :  27466.71s CPU  28278.79s WALL (    2671 calls)
     s_psi        :    178.24s CPU    180.09s WALL (    2671 calls)
     g_psi        :      1.51s CPU      1.55s WALL (    2237 calls)

     Called by h_psi:
     h_psi:calbec :    153.69s CPU    166.56s WALL (    2671 calls)
     vloc_psi     :  27149.54s CPU  27946.39s WALL (    2671 calls)
     add_vuspsi   :    160.12s CPU    162.17s WALL (    2671 calls)

     General routines
     calbec       :    216.42s CPU    234.42s WALL (    3175 calls)
     fft          :     49.29s CPU     52.29s WALL (     675 calls)
     ffts         :      3.27s CPU      3.47s WALL (     140 calls)
     fftw         :  18859.86s CPU  19584.02s WALL (  902852 calls)
     interpolate  :      8.05s CPU      8.71s WALL (      72 calls)
 
     Parallel routines

     PAW routines
     PAW_pot      :     78.14s CPU     80.03s WALL (      18 calls)
     PAW_symme    :      0.23s CPU      0.27s WALL (      35 calls)
 
     PWSCF        :      9h41m CPU      9h58m WALL

 
   This run was terminated on:   9:19:15  11Nov2025            

=------------------------------------------------------------------------------=
   JOB DONE.
=------------------------------------------------------------------------------=
