
     Program PWSCF v.7.2 starts on 18Jan2026 at 17:52:46 

     This program is part of the open-source Quantum ESPRESSO suite
     for quantum simulation of materials; please cite
         "P. Giannozzi et al., J. Phys.:Condens. Matter 21 395502 (2009);
         "P. Giannozzi et al., J. Phys.:Condens. Matter 29 465901 (2017);
         "P. Giannozzi et al., J. Chem. Phys. 152 154105 (2020);
          URL http://www.quantum-espresso.org", 
     in publications or presentations arising from this work. More details at
     http://www.quantum-espresso.org/quote

     Parallel version (MPI), running on    48 processors

     MPI processes distributed on     1 nodes
     1248 MiB available memory on the printing compute node when the environment starts
 
     Reading input from MnBi2Te4.nscf.in

     Current dimensions of program PWSCF are:
     Max number of different atomic species (ntypx) = 10
     Max number of k-points (npk) =  40000
     Max angular momentum in pseudopotentials (lmaxx) =  4
     Message from routine input:
     WARNING: "startingwfc" set to atomic+random may spoil restart
     file Mn.rel-pbe-spn-kjpaw_psl.0.3.1.UPF: wavefunction(s)  3P 3P 3D renormalized
     file Mn.rel-pbe-spn-kjpaw_psl.0.3.1.UPF: wavefunction(s)  3P 3P 3D renormalized
     file Bi.rel-pbe-dn-kjpaw_psl.1.0.0.UPF: wavefunction(s)  6P 6P 5D 5D renormalized
     file Te.rel-pbe-n-kjpaw_psl.1.0.0.UPF: wavefunction(s)  5S 5P 5P renormalized

     Fixed quantization axis for GGA:     0.000000    0.000000    1.000000
 
     R & G space division:  proc/nbgrp/npool/nimage =      48
     Subspace diagonalization in iterative solution of the eigenvalue problem:
     one sub-group per band group will be used
     scalapack distributed-memory algorithm (size of sub-group:  2*  2 procs)

 
     Parallelization info
     --------------------
     sticks:   dense  smooth     PW     G-vecs:    dense   smooth      PW
     Min         350     168     50                11768     3915     650
     Max         351     169     51                11770     3917     651
     Sum       16819    8079   2441               564899   187971   31237
 
     Using Slab Decomposition
 


     bravais-lattice index     =            0
     lattice parameter (alat)  =      51.7756  a.u.
     unit-cell volume          =    2994.5794 (a.u.)^3
     number of atoms/cell      =           14
     number of atomic types    =            4
     number of electrons       =       138.00
     number of Kohn-Sham states=          240
     kinetic-energy cutoff     =      60.0000  Ry
     charge density cutoff     =     500.0000  Ry
     Exchange-correlation= SLA  PW   PBX  PBC
                           (   1   4   3   4   0   0   0)
     Noncollinear calculation with spin-orbit


     celldm(1)=  51.775642  celldm(2)=   0.000000  celldm(3)=   0.000000
     celldm(4)=   0.000000  celldm(5)=   0.000000  celldm(6)=   0.000000

     crystal axes: (cart. coord. in units of alat)
               a(1) = (   0.079085  -0.045660   0.995822 )  
               a(2) = (   0.000000   0.091319   0.995822 )  
               a(3) = (  -0.079085  -0.045660   0.995822 )  

     reciprocal axes: (cart. coord. in units 2 pi/alat)
               b(1) = (  6.322314 -3.650196  0.334731 )  
               b(2) = (  0.000000  7.300392  0.334734 )  
               b(3) = ( -6.322314 -3.650196  0.334731 )  


     PseudoPot. # 1 for Mn read from file:
     ./Mn.rel-pbe-spn-kjpaw_psl.0.3.1.UPF
     MD5 check sum: dfba1c7561257014502ac20495784078
     Pseudo is Projector augmented-wave + core cor, Zval = 15.0
     Generated using &quot;atomic&quot; code by A. Dal Corso  v.6.2.2
     Shape of augmentation charge: PSQ
     Using radial grid of 1187 points, 10 beta functions with: 
                l(1) =   0
                l(2) =   0
                l(3) =   1
                l(4) =   1
                l(5) =   1
                l(6) =   1
                l(7) =   2
                l(8) =   2
                l(9) =   2
               l(10) =   2
     Q(r) pseudized with 0 coefficients 


     PseudoPot. # 2 for Mn read from file:
     ./Mn.rel-pbe-spn-kjpaw_psl.0.3.1.UPF
     MD5 check sum: dfba1c7561257014502ac20495784078
     Pseudo is Projector augmented-wave + core cor, Zval = 15.0
     Generated using &quot;atomic&quot; code by A. Dal Corso  v.6.2.2
     Shape of augmentation charge: PSQ
     Using radial grid of 1187 points, 10 beta functions with: 
                l(1) =   0
                l(2) =   0
                l(3) =   1
                l(4) =   1
                l(5) =   1
                l(6) =   1
                l(7) =   2
                l(8) =   2
                l(9) =   2
               l(10) =   2
     Q(r) pseudized with 0 coefficients 


     PseudoPot. # 3 for Bi read from file:
     ./Bi.rel-pbe-dn-kjpaw_psl.1.0.0.UPF
     MD5 check sum: 8010b987e9fb97324c8de82fb26a3f7d
     Pseudo is Projector augmented-wave + core cor, Zval = 15.0
     Generated using &quot;atomic&quot; code by A. Dal Corso  v.6.2.2
     Shape of augmentation charge: PSQ
     Using radial grid of 1283 points, 10 beta functions with: 
                l(1) =   0
                l(2) =   0
                l(3) =   1
                l(4) =   1
                l(5) =   1
                l(6) =   1
                l(7) =   2
                l(8) =   2
                l(9) =   2
               l(10) =   2
     Q(r) pseudized with 0 coefficients 


     PseudoPot. # 4 for Te read from file:
     ./Te.rel-pbe-n-kjpaw_psl.1.0.0.UPF
     MD5 check sum: 8399411061dffbb19b40ade5049f5146
     Pseudo is Projector augmented-wave + core cor, Zval =  6.0
     Generated using &quot;atomic&quot; code by A. Dal Corso  v.6.3
     Shape of augmentation charge: PSQ
     Using radial grid of 1245 points, 10 beta functions with: 
                l(1) =   0
                l(2) =   0
                l(3) =   1
                l(4) =   1
                l(5) =   1
                l(6) =   1
                l(7) =   2
                l(8) =   2
                l(9) =   2
               l(10) =   2
     Q(r) pseudized with 0 coefficients 


     atomic species   valence    mass     pseudopotential
        Mn1           15.00    54.93800     Mn( 1.00)
        Mn2           15.00    54.93800     Mn( 1.00)
        Bi            15.00   208.98000     Bi( 1.00)
        Te             6.00   127.60300     Te( 1.00)

     No symmetry found


                                    s                        frac. trans.

      isym =  1     identity                                     

 Time Reversal            0
 cryst.   s( 1) = (     1          0          0      )
                  (     0          1          0      )
                  (     0          0          1      )

 cart.    s( 1) = (  1.0000000  0.0000000  0.0000000 )
                  (  0.0000000  1.0000000 -0.0000000 )
                  (  0.0000000  0.0000000  1.0000000 )


   Cartesian axes

     site n.     atom                  positions (alat units)
         1           Mn1 tau(   1) = (   0.0000000   0.0000000   0.0000000  )
         2           Mn2 tau(   2) = (   0.0000000  -0.0000005   1.4937325  )
         3           Bi  tau(   3) = (   0.0000000  -0.0000002   0.6346869  )
         4           Bi  tau(   4) = (   0.0000000  -0.0000007   2.1284194  )
         5           Bi  tau(   5) = (   0.0000000  -0.0000003   0.8590455  )
         6           Bi  tau(   6) = (   0.0000000  -0.0000008   2.3527780  )
         7           Te  tau(   7) = (   0.0000000  -0.0000001   0.1992042  )
         8           Te  tau(   8) = (   0.0000000  -0.0000006   1.6929366  )
         9           Te  tau(   9) = (   0.0000000  -0.0000004   1.2945283  )
        10           Te  tau(  10) = (   0.0000000  -0.0000009   2.7882608  )
        11           Te  tau(  11) = (   0.0000000  -0.0000001   0.4392470  )
        12           Te  tau(  12) = (   0.0000000  -0.0000006   1.9329794  )
        13           Te  tau(  13) = (   0.0000000  -0.0000004   1.0544855  )
        14           Te  tau(  14) = (   0.0000000  -0.0000009   2.5482179  )

     --------------------------------------------
     DFT-D3 Dispersion Correction (3-body terms):
     --------------------------------------------
       Reference C6 values for interpolation: 

         atom   Coordination number   C6
         Mn1        0.000          1605.50
         Mn1        1.641           479.11
         Mn1        9.885           227.69
         Mn2        0.000          1605.50
         Mn2        1.641           479.11
         Mn2        9.885           227.69
         Te         0.000           851.07
         Te         0.981           850.20
         Te         1.964           837.16
         Bi         0.000          1235.06
         Bi         0.982          1188.09
         Bi         1.966          1132.10
         Bi         2.950          1067.76

       Values used:

         atom   Coordination number  R0_AB[au]  C6      C8
         Mn1        3.848            3.351    479.11  48433.79
         Mn2        3.848            3.351    479.11  48433.79
         Bi         5.275            3.890   1067.76 147315.96
         Bi         5.275            3.890   1067.76 147315.96
         Bi         5.275            3.890   1067.76 147315.96
         Bi         5.275            3.890   1067.76 147315.96
         Te         3.328            3.676    837.16  84978.06
         Te         3.328            3.676    837.16  84978.06
         Te         3.328            3.676    837.16  84978.06
         Te         3.328            3.676    837.16  84978.06
         Te         4.238            3.676    837.16  84978.05
         Te         4.238            3.676    837.16  84978.05
         Te         4.238            3.676    837.16  84978.05
         Te         4.238            3.676    837.16  84978.05

         Molecular C6 ( Ry / a.u.^6 ) =    164642.77


   Crystallographic axes

     site n.     atom                  positions (cryst. coord.)
         1           Mn1 tau(   1) = (  0.0000000  0.0000000  0.0000000  )
         2           Mn2 tau(   2) = (  0.5000000  0.5000000  0.5000000  )
         3           Bi  tau(   3) = (  0.2124500  0.2124500  0.2124500  )
         4           Bi  tau(   4) = (  0.7124500  0.7124500  0.7124500  )
         5           Bi  tau(   5) = (  0.2875500  0.2875500  0.2875500  )
         6           Bi  tau(   6) = (  0.7875500  0.7875500  0.7875500  )
         7           Te  tau(   7) = (  0.0666800  0.0666800  0.0666800  )
         8           Te  tau(   8) = (  0.5666800  0.5666800  0.5666800  )
         9           Te  tau(   9) = (  0.4333200  0.4333200  0.4333200  )
        10           Te  tau(  10) = (  0.9333200  0.9333200  0.9333200  )
        11           Te  tau(  11) = (  0.1470300  0.1470300  0.1470300  )
        12           Te  tau(  12) = (  0.6470300  0.6470300  0.6470300  )
        13           Te  tau(  13) = (  0.3529700  0.3529700  0.3529700  )
        14           Te  tau(  14) = (  0.8529700  0.8529700  0.8529700  )

     number of k points=   512
                       cart. coord. in units 2pi/alat
        k(    1) = (   0.0000000   0.0000000   0.0000000), wk =   0.0019531
        k(    2) = (  -0.7902892  -0.4562745   0.0418413), wk =   0.0019531
        k(    3) = (  -1.5805784  -0.9125490   0.0836827), wk =   0.0019531
        k(    4) = (  -2.3708677  -1.3688235   0.1255240), wk =   0.0019531
        k(    5) = (  -3.1611569  -1.8250979   0.1673654), wk =   0.0019531
        k(    6) = (  -3.9514461  -2.2813724   0.2092067), wk =   0.0019531
        k(    7) = (  -4.7417353  -2.7376469   0.2510481), wk =   0.0019531
        k(    8) = (  -5.5320245  -3.1939214   0.2928894), wk =   0.0019531
        k(    9) = (   0.0000000   0.9125490   0.0418418), wk =   0.0019531
        k(   10) = (  -0.7902892   0.4562745   0.0836831), wk =   0.0019531
        k(   11) = (  -1.5805784   0.0000000   0.1255245), wk =   0.0019531
        k(   12) = (  -2.3708677  -0.4562745   0.1673658), wk =   0.0019531
        k(   13) = (  -3.1611569  -0.9125490   0.2092072), wk =   0.0019531
        k(   14) = (  -3.9514461  -1.3688235   0.2510485), wk =   0.0019531
        k(   15) = (  -4.7417353  -1.8250979   0.2928899), wk =   0.0019531
        k(   16) = (  -5.5320245  -2.2813724   0.3347312), wk =   0.0019531
        k(   17) = (   0.0000000   1.8250979   0.0836836), wk =   0.0019531
        k(   18) = (  -0.7902892   1.3688235   0.1255249), wk =   0.0019531
        k(   19) = (  -1.5805784   0.9125490   0.1673663), wk =   0.0019531
        k(   20) = (  -2.3708677   0.4562745   0.2092076), wk =   0.0019531
        k(   21) = (  -3.1611569   0.0000000   0.2510490), wk =   0.0019531
        k(   22) = (  -3.9514461  -0.4562745   0.2928903), wk =   0.0019531
        k(   23) = (  -4.7417353  -0.9125490   0.3347317), wk =   0.0019531
        k(   24) = (  -5.5320245  -1.3688235   0.3765730), wk =   0.0019531
        k(   25) = (   0.0000000   2.7376469   0.1255254), wk =   0.0019531
        k(   26) = (  -0.7902892   2.2813724   0.1673667), wk =   0.0019531
        k(   27) = (  -1.5805784   1.8250979   0.2092081), wk =   0.0019531
        k(   28) = (  -2.3708677   1.3688235   0.2510494), wk =   0.0019531
        k(   29) = (  -3.1611569   0.9125490   0.2928908), wk =   0.0019531
        k(   30) = (  -3.9514461   0.4562745   0.3347321), wk =   0.0019531
        k(   31) = (  -4.7417353   0.0000000   0.3765735), wk =   0.0019531
        k(   32) = (  -5.5320245  -0.4562745   0.4184148), wk =   0.0019531
        k(   33) = (   0.0000000   3.6501959   0.1673672), wk =   0.0019531
        k(   34) = (  -0.7902892   3.1939214   0.2092085), wk =   0.0019531
        k(   35) = (  -1.5805784   2.7376469   0.2510499), wk =   0.0019531
        k(   36) = (  -2.3708677   2.2813724   0.2928912), wk =   0.0019531
        k(   37) = (  -3.1611569   1.8250979   0.3347326), wk =   0.0019531
        k(   38) = (  -3.9514461   1.3688235   0.3765739), wk =   0.0019531
        k(   39) = (  -4.7417353   0.9125490   0.4184153), wk =   0.0019531
        k(   40) = (  -5.5320245   0.4562745   0.4602566), wk =   0.0019531
        k(   41) = (   0.0000000   4.5627449   0.2092090), wk =   0.0019531
        k(   42) = (  -0.7902892   4.1064704   0.2510503), wk =   0.0019531
        k(   43) = (  -1.5805784   3.6501959   0.2928917), wk =   0.0019531
        k(   44) = (  -2.3708677   3.1939214   0.3347330), wk =   0.0019531
        k(   45) = (  -3.1611569   2.7376469   0.3765744), wk =   0.0019531
        k(   46) = (  -3.9514461   2.2813724   0.4184157), wk =   0.0019531
        k(   47) = (  -4.7417353   1.8250979   0.4602571), wk =   0.0019531
        k(   48) = (  -5.5320245   1.3688235   0.5020984), wk =   0.0019531
        k(   49) = (   0.0000000   5.4752938   0.2510508), wk =   0.0019531
        k(   50) = (  -0.7902892   5.0190193   0.2928921), wk =   0.0019531
        k(   51) = (  -1.5805784   4.5627449   0.3347335), wk =   0.0019531
        k(   52) = (  -2.3708677   4.1064704   0.3765748), wk =   0.0019531
        k(   53) = (  -3.1611569   3.6501959   0.4184162), wk =   0.0019531
        k(   54) = (  -3.9514461   3.1939214   0.4602575), wk =   0.0019531
        k(   55) = (  -4.7417353   2.7376469   0.5020989), wk =   0.0019531
        k(   56) = (  -5.5320245   2.2813724   0.5439402), wk =   0.0019531
        k(   57) = (   0.0000000   6.3878428   0.2928926), wk =   0.0019531
        k(   58) = (  -0.7902892   5.9315683   0.3347340), wk =   0.0019531
        k(   59) = (  -1.5805784   5.4752938   0.3765753), wk =   0.0019531
        k(   60) = (  -2.3708677   5.0190193   0.4184166), wk =   0.0019531
        k(   61) = (  -3.1611569   4.5627449   0.4602580), wk =   0.0019531
        k(   62) = (  -3.9514461   4.1064704   0.5020993), wk =   0.0019531
        k(   63) = (  -4.7417353   3.6501959   0.5439407), wk =   0.0019531
        k(   64) = (  -5.5320245   3.1939214   0.5857820), wk =   0.0019531
        k(   65) = (   0.7902892  -0.4562745   0.0418413), wk =   0.0019531
        k(   66) = (   0.0000000  -0.9125490   0.0836827), wk =   0.0019531
        k(   67) = (  -0.7902892  -1.3688235   0.1255240), wk =   0.0019531
        k(   68) = (  -1.5805784  -1.8250979   0.1673654), wk =   0.0019531
        k(   69) = (  -2.3708677  -2.2813724   0.2092067), wk =   0.0019531
        k(   70) = (  -3.1611569  -2.7376469   0.2510481), wk =   0.0019531
        k(   71) = (  -3.9514461  -3.1939214   0.2928894), wk =   0.0019531
        k(   72) = (  -4.7417353  -3.6501959   0.3347307), wk =   0.0019531
        k(   73) = (   0.7902892   0.4562745   0.0836831), wk =   0.0019531
        k(   74) = (   0.0000000   0.0000000   0.1255245), wk =   0.0019531
        k(   75) = (  -0.7902892  -0.4562745   0.1673658), wk =   0.0019531
        k(   76) = (  -1.5805784  -0.9125490   0.2092072), wk =   0.0019531
        k(   77) = (  -2.3708677  -1.3688235   0.2510485), wk =   0.0019531
        k(   78) = (  -3.1611569  -1.8250979   0.2928899), wk =   0.0019531
        k(   79) = (  -3.9514461  -2.2813724   0.3347312), wk =   0.0019531
        k(   80) = (  -4.7417353  -2.7376469   0.3765725), wk =   0.0019531
        k(   81) = (   0.7902892   1.3688235   0.1255249), wk =   0.0019531
        k(   82) = (   0.0000000   0.9125490   0.1673663), wk =   0.0019531
        k(   83) = (  -0.7902892   0.4562745   0.2092076), wk =   0.0019531
        k(   84) = (  -1.5805784   0.0000000   0.2510490), wk =   0.0019531
        k(   85) = (  -2.3708677  -0.4562745   0.2928903), wk =   0.0019531
        k(   86) = (  -3.1611569  -0.9125490   0.3347317), wk =   0.0019531
        k(   87) = (  -3.9514461  -1.3688235   0.3765730), wk =   0.0019531
        k(   88) = (  -4.7417353  -1.8250979   0.4184143), wk =   0.0019531
        k(   89) = (   0.7902892   2.2813724   0.1673667), wk =   0.0019531
        k(   90) = (   0.0000000   1.8250979   0.2092081), wk =   0.0019531
        k(   91) = (  -0.7902892   1.3688235   0.2510494), wk =   0.0019531
        k(   92) = (  -1.5805784   0.9125490   0.2928908), wk =   0.0019531
        k(   93) = (  -2.3708677   0.4562745   0.3347321), wk =   0.0019531
        k(   94) = (  -3.1611569   0.0000000   0.3765735), wk =   0.0019531
        k(   95) = (  -3.9514461  -0.4562745   0.4184148), wk =   0.0019531
        k(   96) = (  -4.7417353  -0.9125490   0.4602561), wk =   0.0019531
        k(   97) = (   0.7902892   3.1939214   0.2092085), wk =   0.0019531
        k(   98) = (   0.0000000   2.7376469   0.2510499), wk =   0.0019531
        k(   99) = (  -0.7902892   2.2813724   0.2928912), wk =   0.0019531
        k(  100) = (  -1.5805784   1.8250979   0.3347326), wk =   0.0019531
        k(  101) = (  -2.3708677   1.3688235   0.3765739), wk =   0.0019531
        k(  102) = (  -3.1611569   0.9125490   0.4184153), wk =   0.0019531
        k(  103) = (  -3.9514461   0.4562745   0.4602566), wk =   0.0019531
        k(  104) = (  -4.7417353   0.0000000   0.5020979), wk =   0.0019531
        k(  105) = (   0.7902892   4.1064704   0.2510503), wk =   0.0019531
        k(  106) = (   0.0000000   3.6501959   0.2928917), wk =   0.0019531
        k(  107) = (  -0.7902892   3.1939214   0.3347330), wk =   0.0019531
        k(  108) = (  -1.5805784   2.7376469   0.3765744), wk =   0.0019531
        k(  109) = (  -2.3708677   2.2813724   0.4184157), wk =   0.0019531
        k(  110) = (  -3.1611569   1.8250979   0.4602571), wk =   0.0019531
        k(  111) = (  -3.9514461   1.3688235   0.5020984), wk =   0.0019531
        k(  112) = (  -4.7417353   0.9125490   0.5439397), wk =   0.0019531
        k(  113) = (   0.7902892   5.0190193   0.2928921), wk =   0.0019531
        k(  114) = (   0.0000000   4.5627449   0.3347335), wk =   0.0019531
        k(  115) = (  -0.7902892   4.1064704   0.3765748), wk =   0.0019531
        k(  116) = (  -1.5805784   3.6501959   0.4184162), wk =   0.0019531
        k(  117) = (  -2.3708677   3.1939214   0.4602575), wk =   0.0019531
        k(  118) = (  -3.1611569   2.7376469   0.5020989), wk =   0.0019531
        k(  119) = (  -3.9514461   2.2813724   0.5439402), wk =   0.0019531
        k(  120) = (  -4.7417353   1.8250979   0.5857815), wk =   0.0019531
        k(  121) = (   0.7902892   5.9315683   0.3347340), wk =   0.0019531
        k(  122) = (   0.0000000   5.4752938   0.3765753), wk =   0.0019531
        k(  123) = (  -0.7902892   5.0190193   0.4184166), wk =   0.0019531
        k(  124) = (  -1.5805784   4.5627449   0.4602580), wk =   0.0019531
        k(  125) = (  -2.3708677   4.1064704   0.5020993), wk =   0.0019531
        k(  126) = (  -3.1611569   3.6501959   0.5439407), wk =   0.0019531
        k(  127) = (  -3.9514461   3.1939214   0.5857820), wk =   0.0019531
        k(  128) = (  -4.7417353   2.7376469   0.6276234), wk =   0.0019531
        k(  129) = (   1.5805784  -0.9125490   0.0836827), wk =   0.0019531
        k(  130) = (   0.7902892  -1.3688235   0.1255240), wk =   0.0019531
        k(  131) = (   0.0000000  -1.8250979   0.1673654), wk =   0.0019531
        k(  132) = (  -0.7902892  -2.2813724   0.2092067), wk =   0.0019531
        k(  133) = (  -1.5805784  -2.7376469   0.2510481), wk =   0.0019531
        k(  134) = (  -2.3708677  -3.1939214   0.2928894), wk =   0.0019531
        k(  135) = (  -3.1611569  -3.6501959   0.3347307), wk =   0.0019531
        k(  136) = (  -3.9514461  -4.1064704   0.3765721), wk =   0.0019531
        k(  137) = (   1.5805784   0.0000000   0.1255245), wk =   0.0019531
        k(  138) = (   0.7902892  -0.4562745   0.1673658), wk =   0.0019531
        k(  139) = (   0.0000000  -0.9125490   0.2092072), wk =   0.0019531
        k(  140) = (  -0.7902892  -1.3688235   0.2510485), wk =   0.0019531
        k(  141) = (  -1.5805784  -1.8250979   0.2928899), wk =   0.0019531
        k(  142) = (  -2.3708677  -2.2813724   0.3347312), wk =   0.0019531
        k(  143) = (  -3.1611569  -2.7376469   0.3765725), wk =   0.0019531
        k(  144) = (  -3.9514461  -3.1939214   0.4184139), wk =   0.0019531
        k(  145) = (   1.5805784   0.9125490   0.1673663), wk =   0.0019531
        k(  146) = (   0.7902892   0.4562745   0.2092076), wk =   0.0019531
        k(  147) = (   0.0000000   0.0000000   0.2510490), wk =   0.0019531
        k(  148) = (  -0.7902892  -0.4562745   0.2928903), wk =   0.0019531
        k(  149) = (  -1.5805784  -0.9125490   0.3347317), wk =   0.0019531
        k(  150) = (  -2.3708677  -1.3688235   0.3765730), wk =   0.0019531
        k(  151) = (  -3.1611569  -1.8250979   0.4184143), wk =   0.0019531
        k(  152) = (  -3.9514461  -2.2813724   0.4602557), wk =   0.0019531
        k(  153) = (   1.5805784   1.8250979   0.2092081), wk =   0.0019531
        k(  154) = (   0.7902892   1.3688235   0.2510494), wk =   0.0019531
        k(  155) = (   0.0000000   0.9125490   0.2928908), wk =   0.0019531
        k(  156) = (  -0.7902892   0.4562745   0.3347321), wk =   0.0019531
        k(  157) = (  -1.5805784  -0.0000000   0.3765735), wk =   0.0019531
        k(  158) = (  -2.3708677  -0.4562745   0.4184148), wk =   0.0019531
        k(  159) = (  -3.1611569  -0.9125490   0.4602561), wk =   0.0019531
        k(  160) = (  -3.9514461  -1.3688235   0.5020975), wk =   0.0019531
        k(  161) = (   1.5805784   2.7376469   0.2510499), wk =   0.0019531
        k(  162) = (   0.7902892   2.2813724   0.2928912), wk =   0.0019531
        k(  163) = (   0.0000000   1.8250979   0.3347326), wk =   0.0019531
        k(  164) = (  -0.7902892   1.3688235   0.3765739), wk =   0.0019531
        k(  165) = (  -1.5805784   0.9125490   0.4184153), wk =   0.0019531
        k(  166) = (  -2.3708677   0.4562745   0.4602566), wk =   0.0019531
        k(  167) = (  -3.1611569   0.0000000   0.5020979), wk =   0.0019531
        k(  168) = (  -3.9514461  -0.4562745   0.5439393), wk =   0.0019531
        k(  169) = (   1.5805784   3.6501959   0.2928917), wk =   0.0019531
        k(  170) = (   0.7902892   3.1939214   0.3347330), wk =   0.0019531
        k(  171) = (   0.0000000   2.7376469   0.3765744), wk =   0.0019531
        k(  172) = (  -0.7902892   2.2813724   0.4184157), wk =   0.0019531
        k(  173) = (  -1.5805784   1.8250979   0.4602571), wk =   0.0019531
        k(  174) = (  -2.3708677   1.3688235   0.5020984), wk =   0.0019531
        k(  175) = (  -3.1611569   0.9125490   0.5439397), wk =   0.0019531
        k(  176) = (  -3.9514461   0.4562745   0.5857811), wk =   0.0019531
        k(  177) = (   1.5805784   4.5627449   0.3347335), wk =   0.0019531
        k(  178) = (   0.7902892   4.1064704   0.3765748), wk =   0.0019531
        k(  179) = (   0.0000000   3.6501959   0.4184162), wk =   0.0019531
        k(  180) = (  -0.7902892   3.1939214   0.4602575), wk =   0.0019531
        k(  181) = (  -1.5805784   2.7376469   0.5020989), wk =   0.0019531
        k(  182) = (  -2.3708677   2.2813724   0.5439402), wk =   0.0019531
        k(  183) = (  -3.1611569   1.8250979   0.5857815), wk =   0.0019531
        k(  184) = (  -3.9514461   1.3688235   0.6276229), wk =   0.0019531
        k(  185) = (   1.5805784   5.4752938   0.3765753), wk =   0.0019531
        k(  186) = (   0.7902892   5.0190193   0.4184166), wk =   0.0019531
        k(  187) = (   0.0000000   4.5627449   0.4602580), wk =   0.0019531
        k(  188) = (  -0.7902892   4.1064704   0.5020993), wk =   0.0019531
        k(  189) = (  -1.5805784   3.6501959   0.5439407), wk =   0.0019531
        k(  190) = (  -2.3708677   3.1939214   0.5857820), wk =   0.0019531
        k(  191) = (  -3.1611569   2.7376469   0.6276234), wk =   0.0019531
        k(  192) = (  -3.9514461   2.2813724   0.6694647), wk =   0.0019531
        k(  193) = (   2.3708677  -1.3688235   0.1255240), wk =   0.0019531
        k(  194) = (   1.5805784  -1.8250979   0.1673654), wk =   0.0019531
        k(  195) = (   0.7902892  -2.2813724   0.2092067), wk =   0.0019531
        k(  196) = (   0.0000000  -2.7376469   0.2510481), wk =   0.0019531
        k(  197) = (  -0.7902892  -3.1939214   0.2928894), wk =   0.0019531
        k(  198) = (  -1.5805784  -3.6501959   0.3347307), wk =   0.0019531
        k(  199) = (  -2.3708677  -4.1064704   0.3765721), wk =   0.0019531
        k(  200) = (  -3.1611569  -4.5627449   0.4184134), wk =   0.0019531
        k(  201) = (   2.3708677  -0.4562745   0.1673658), wk =   0.0019531
        k(  202) = (   1.5805784  -0.9125490   0.2092072), wk =   0.0019531
        k(  203) = (   0.7902892  -1.3688235   0.2510485), wk =   0.0019531
        k(  204) = (   0.0000000  -1.8250979   0.2928899), wk =   0.0019531
        k(  205) = (  -0.7902892  -2.2813724   0.3347312), wk =   0.0019531
        k(  206) = (  -1.5805784  -2.7376469   0.3765725), wk =   0.0019531
        k(  207) = (  -2.3708677  -3.1939214   0.4184139), wk =   0.0019531
        k(  208) = (  -3.1611569  -3.6501959   0.4602552), wk =   0.0019531
        k(  209) = (   2.3708677   0.4562745   0.2092076), wk =   0.0019531
        k(  210) = (   1.5805784   0.0000000   0.2510490), wk =   0.0019531
        k(  211) = (   0.7902892  -0.4562745   0.2928903), wk =   0.0019531
        k(  212) = (   0.0000000  -0.9125490   0.3347317), wk =   0.0019531
        k(  213) = (  -0.7902892  -1.3688235   0.3765730), wk =   0.0019531
        k(  214) = (  -1.5805784  -1.8250979   0.4184143), wk =   0.0019531
        k(  215) = (  -2.3708677  -2.2813724   0.4602557), wk =   0.0019531
        k(  216) = (  -3.1611569  -2.7376469   0.5020970), wk =   0.0019531
        k(  217) = (   2.3708677   1.3688235   0.2510494), wk =   0.0019531
        k(  218) = (   1.5805784   0.9125490   0.2928908), wk =   0.0019531
        k(  219) = (   0.7902892   0.4562745   0.3347321), wk =   0.0019531
        k(  220) = (   0.0000000   0.0000000   0.3765735), wk =   0.0019531
        k(  221) = (  -0.7902892  -0.4562745   0.4184148), wk =   0.0019531
        k(  222) = (  -1.5805784  -0.9125490   0.4602561), wk =   0.0019531
        k(  223) = (  -2.3708677  -1.3688235   0.5020975), wk =   0.0019531
        k(  224) = (  -3.1611569  -1.8250979   0.5439388), wk =   0.0019531
        k(  225) = (   2.3708677   2.2813724   0.2928912), wk =   0.0019531
        k(  226) = (   1.5805784   1.8250979   0.3347326), wk =   0.0019531
        k(  227) = (   0.7902892   1.3688235   0.3765739), wk =   0.0019531
        k(  228) = (   0.0000000   0.9125490   0.4184153), wk =   0.0019531
        k(  229) = (  -0.7902892   0.4562745   0.4602566), wk =   0.0019531
        k(  230) = (  -1.5805784   0.0000000   0.5020979), wk =   0.0019531
        k(  231) = (  -2.3708677  -0.4562745   0.5439393), wk =   0.0019531
        k(  232) = (  -3.1611569  -0.9125490   0.5857806), wk =   0.0019531
        k(  233) = (   2.3708677   3.1939214   0.3347330), wk =   0.0019531
        k(  234) = (   1.5805784   2.7376469   0.3765744), wk =   0.0019531
        k(  235) = (   0.7902892   2.2813724   0.4184157), wk =   0.0019531
        k(  236) = (   0.0000000   1.8250979   0.4602571), wk =   0.0019531
        k(  237) = (  -0.7902892   1.3688235   0.5020984), wk =   0.0019531
        k(  238) = (  -1.5805784   0.9125490   0.5439397), wk =   0.0019531
        k(  239) = (  -2.3708677   0.4562745   0.5857811), wk =   0.0019531
        k(  240) = (  -3.1611569   0.0000000   0.6276224), wk =   0.0019531
        k(  241) = (   2.3708677   4.1064704   0.3765748), wk =   0.0019531
        k(  242) = (   1.5805784   3.6501959   0.4184162), wk =   0.0019531
        k(  243) = (   0.7902892   3.1939214   0.4602575), wk =   0.0019531
        k(  244) = (   0.0000000   2.7376469   0.5020989), wk =   0.0019531
        k(  245) = (  -0.7902892   2.2813724   0.5439402), wk =   0.0019531
        k(  246) = (  -1.5805784   1.8250979   0.5857815), wk =   0.0019531
        k(  247) = (  -2.3708677   1.3688235   0.6276229), wk =   0.0019531
        k(  248) = (  -3.1611569   0.9125490   0.6694642), wk =   0.0019531
        k(  249) = (   2.3708677   5.0190193   0.4184166), wk =   0.0019531
        k(  250) = (   1.5805784   4.5627449   0.4602580), wk =   0.0019531
        k(  251) = (   0.7902892   4.1064704   0.5020993), wk =   0.0019531
        k(  252) = (   0.0000000   3.6501959   0.5439407), wk =   0.0019531
        k(  253) = (  -0.7902892   3.1939214   0.5857820), wk =   0.0019531
        k(  254) = (  -1.5805784   2.7376469   0.6276234), wk =   0.0019531
        k(  255) = (  -2.3708677   2.2813724   0.6694647), wk =   0.0019531
        k(  256) = (  -3.1611569   1.8250979   0.7113060), wk =   0.0019531
        k(  257) = (   3.1611569  -1.8250979   0.1673654), wk =   0.0019531
        k(  258) = (   2.3708677  -2.2813724   0.2092067), wk =   0.0019531
        k(  259) = (   1.5805784  -2.7376469   0.2510481), wk =   0.0019531
        k(  260) = (   0.7902892  -3.1939214   0.2928894), wk =   0.0019531
        k(  261) = (   0.0000000  -3.6501959   0.3347307), wk =   0.0019531
        k(  262) = (  -0.7902892  -4.1064704   0.3765721), wk =   0.0019531
        k(  263) = (  -1.5805784  -4.5627449   0.4184134), wk =   0.0019531
        k(  264) = (  -2.3708677  -5.0190193   0.4602548), wk =   0.0019531
        k(  265) = (   3.1611569  -0.9125490   0.2092072), wk =   0.0019531
        k(  266) = (   2.3708677  -1.3688235   0.2510485), wk =   0.0019531
        k(  267) = (   1.5805784  -1.8250979   0.2928899), wk =   0.0019531
        k(  268) = (   0.7902892  -2.2813724   0.3347312), wk =   0.0019531
        k(  269) = (   0.0000000  -2.7376469   0.3765725), wk =   0.0019531
        k(  270) = (  -0.7902892  -3.1939214   0.4184139), wk =   0.0019531
        k(  271) = (  -1.5805784  -3.6501959   0.4602552), wk =   0.0019531
        k(  272) = (  -2.3708677  -4.1064704   0.5020966), wk =   0.0019531
        k(  273) = (   3.1611569   0.0000000   0.2510490), wk =   0.0019531
        k(  274) = (   2.3708677  -0.4562745   0.2928903), wk =   0.0019531
        k(  275) = (   1.5805784  -0.9125490   0.3347317), wk =   0.0019531
        k(  276) = (   0.7902892  -1.3688235   0.3765730), wk =   0.0019531
        k(  277) = (   0.0000000  -1.8250979   0.4184143), wk =   0.0019531
        k(  278) = (  -0.7902892  -2.2813724   0.4602557), wk =   0.0019531
        k(  279) = (  -1.5805784  -2.7376469   0.5020970), wk =   0.0019531
        k(  280) = (  -2.3708677  -3.1939214   0.5439384), wk =   0.0019531
        k(  281) = (   3.1611569   0.9125490   0.2928908), wk =   0.0019531
        k(  282) = (   2.3708677   0.4562745   0.3347321), wk =   0.0019531
        k(  283) = (   1.5805784  -0.0000000   0.3765735), wk =   0.0019531
        k(  284) = (   0.7902892  -0.4562745   0.4184148), wk =   0.0019531
        k(  285) = (   0.0000000  -0.9125490   0.4602561), wk =   0.0019531
        k(  286) = (  -0.7902892  -1.3688235   0.5020975), wk =   0.0019531
        k(  287) = (  -1.5805784  -1.8250979   0.5439388), wk =   0.0019531
        k(  288) = (  -2.3708677  -2.2813724   0.5857802), wk =   0.0019531
        k(  289) = (   3.1611569   1.8250979   0.3347326), wk =   0.0019531
        k(  290) = (   2.3708677   1.3688235   0.3765739), wk =   0.0019531
        k(  291) = (   1.5805784   0.9125490   0.4184153), wk =   0.0019531
        k(  292) = (   0.7902892   0.4562745   0.4602566), wk =   0.0019531
        k(  293) = (   0.0000000   0.0000000   0.5020979), wk =   0.0019531
        k(  294) = (  -0.7902892  -0.4562745   0.5439393), wk =   0.0019531
        k(  295) = (  -1.5805784  -0.9125490   0.5857806), wk =   0.0019531
        k(  296) = (  -2.3708677  -1.3688235   0.6276220), wk =   0.0019531
        k(  297) = (   3.1611569   2.7376469   0.3765744), wk =   0.0019531
        k(  298) = (   2.3708677   2.2813724   0.4184157), wk =   0.0019531
        k(  299) = (   1.5805784   1.8250979   0.4602571), wk =   0.0019531
        k(  300) = (   0.7902892   1.3688235   0.5020984), wk =   0.0019531
        k(  301) = (   0.0000000   0.9125490   0.5439397), wk =   0.0019531
        k(  302) = (  -0.7902892   0.4562745   0.5857811), wk =   0.0019531
        k(  303) = (  -1.5805784   0.0000000   0.6276224), wk =   0.0019531
        k(  304) = (  -2.3708677  -0.4562745   0.6694638), wk =   0.0019531
        k(  305) = (   3.1611569   3.6501959   0.4184162), wk =   0.0019531
        k(  306) = (   2.3708677   3.1939214   0.4602575), wk =   0.0019531
        k(  307) = (   1.5805784   2.7376469   0.5020989), wk =   0.0019531
        k(  308) = (   0.7902892   2.2813724   0.5439402), wk =   0.0019531
        k(  309) = (   0.0000000   1.8250979   0.5857815), wk =   0.0019531
        k(  310) = (  -0.7902892   1.3688235   0.6276229), wk =   0.0019531
        k(  311) = (  -1.5805784   0.9125490   0.6694642), wk =   0.0019531
        k(  312) = (  -2.3708677   0.4562745   0.7113056), wk =   0.0019531
        k(  313) = (   3.1611569   4.5627449   0.4602580), wk =   0.0019531
        k(  314) = (   2.3708677   4.1064704   0.5020993), wk =   0.0019531
        k(  315) = (   1.5805784   3.6501959   0.5439407), wk =   0.0019531
        k(  316) = (   0.7902892   3.1939214   0.5857820), wk =   0.0019531
        k(  317) = (   0.0000000   2.7376469   0.6276234), wk =   0.0019531
        k(  318) = (  -0.7902892   2.2813724   0.6694647), wk =   0.0019531
        k(  319) = (  -1.5805784   1.8250979   0.7113060), wk =   0.0019531
        k(  320) = (  -2.3708677   1.3688235   0.7531474), wk =   0.0019531
        k(  321) = (   3.9514461  -2.2813724   0.2092067), wk =   0.0019531
        k(  322) = (   3.1611569  -2.7376469   0.2510481), wk =   0.0019531
        k(  323) = (   2.3708677  -3.1939214   0.2928894), wk =   0.0019531
        k(  324) = (   1.5805784  -3.6501959   0.3347307), wk =   0.0019531
        k(  325) = (   0.7902892  -4.1064704   0.3765721), wk =   0.0019531
        k(  326) = (   0.0000000  -4.5627449   0.4184134), wk =   0.0019531
        k(  327) = (  -0.7902892  -5.0190193   0.4602548), wk =   0.0019531
        k(  328) = (  -1.5805784  -5.4752938   0.5020961), wk =   0.0019531
        k(  329) = (   3.9514461  -1.3688235   0.2510485), wk =   0.0019531
        k(  330) = (   3.1611569  -1.8250979   0.2928899), wk =   0.0019531
        k(  331) = (   2.3708677  -2.2813724   0.3347312), wk =   0.0019531
        k(  332) = (   1.5805784  -2.7376469   0.3765725), wk =   0.0019531
        k(  333) = (   0.7902892  -3.1939214   0.4184139), wk =   0.0019531
        k(  334) = (   0.0000000  -3.6501959   0.4602552), wk =   0.0019531
        k(  335) = (  -0.7902892  -4.1064704   0.5020966), wk =   0.0019531
        k(  336) = (  -1.5805784  -4.5627449   0.5439379), wk =   0.0019531
        k(  337) = (   3.9514461  -0.4562745   0.2928903), wk =   0.0019531
        k(  338) = (   3.1611569  -0.9125490   0.3347317), wk =   0.0019531
        k(  339) = (   2.3708677  -1.3688235   0.3765730), wk =   0.0019531
        k(  340) = (   1.5805784  -1.8250979   0.4184143), wk =   0.0019531
        k(  341) = (   0.7902892  -2.2813724   0.4602557), wk =   0.0019531
        k(  342) = (   0.0000000  -2.7376469   0.5020970), wk =   0.0019531
        k(  343) = (  -0.7902892  -3.1939214   0.5439384), wk =   0.0019531
        k(  344) = (  -1.5805784  -3.6501959   0.5857797), wk =   0.0019531
        k(  345) = (   3.9514461   0.4562745   0.3347321), wk =   0.0019531
        k(  346) = (   3.1611569  -0.0000000   0.3765735), wk =   0.0019531
        k(  347) = (   2.3708677  -0.4562745   0.4184148), wk =   0.0019531
        k(  348) = (   1.5805784  -0.9125490   0.4602561), wk =   0.0019531
        k(  349) = (   0.7902892  -1.3688235   0.5020975), wk =   0.0019531
        k(  350) = (   0.0000000  -1.8250979   0.5439388), wk =   0.0019531
        k(  351) = (  -0.7902892  -2.2813724   0.5857802), wk =   0.0019531
        k(  352) = (  -1.5805784  -2.7376469   0.6276215), wk =   0.0019531
        k(  353) = (   3.9514461   1.3688235   0.3765739), wk =   0.0019531
        k(  354) = (   3.1611569   0.9125490   0.4184153), wk =   0.0019531
        k(  355) = (   2.3708677   0.4562745   0.4602566), wk =   0.0019531
        k(  356) = (   1.5805784   0.0000000   0.5020979), wk =   0.0019531
        k(  357) = (   0.7902892  -0.4562745   0.5439393), wk =   0.0019531
        k(  358) = (   0.0000000  -0.9125490   0.5857806), wk =   0.0019531
        k(  359) = (  -0.7902892  -1.3688235   0.6276220), wk =   0.0019531
        k(  360) = (  -1.5805784  -1.8250979   0.6694633), wk =   0.0019531
        k(  361) = (   3.9514461   2.2813724   0.4184157), wk =   0.0019531
        k(  362) = (   3.1611569   1.8250979   0.4602571), wk =   0.0019531
        k(  363) = (   2.3708677   1.3688235   0.5020984), wk =   0.0019531
        k(  364) = (   1.5805784   0.9125490   0.5439397), wk =   0.0019531
        k(  365) = (   0.7902892   0.4562745   0.5857811), wk =   0.0019531
        k(  366) = (   0.0000000   0.0000000   0.6276224), wk =   0.0019531
        k(  367) = (  -0.7902892  -0.4562745   0.6694638), wk =   0.0019531
        k(  368) = (  -1.5805784  -0.9125490   0.7113051), wk =   0.0019531
        k(  369) = (   3.9514461   3.1939214   0.4602575), wk =   0.0019531
        k(  370) = (   3.1611569   2.7376469   0.5020989), wk =   0.0019531
        k(  371) = (   2.3708677   2.2813724   0.5439402), wk =   0.0019531
        k(  372) = (   1.5805784   1.8250979   0.5857815), wk =   0.0019531
        k(  373) = (   0.7902892   1.3688235   0.6276229), wk =   0.0019531
        k(  374) = (   0.0000000   0.9125490   0.6694642), wk =   0.0019531
        k(  375) = (  -0.7902892   0.4562745   0.7113056), wk =   0.0019531
        k(  376) = (  -1.5805784  -0.0000000   0.7531469), wk =   0.0019531
        k(  377) = (   3.9514461   4.1064704   0.5020993), wk =   0.0019531
        k(  378) = (   3.1611569   3.6501959   0.5439407), wk =   0.0019531
        k(  379) = (   2.3708677   3.1939214   0.5857820), wk =   0.0019531
        k(  380) = (   1.5805784   2.7376469   0.6276234), wk =   0.0019531
        k(  381) = (   0.7902892   2.2813724   0.6694647), wk =   0.0019531
        k(  382) = (   0.0000000   1.8250979   0.7113060), wk =   0.0019531
        k(  383) = (  -0.7902892   1.3688235   0.7531474), wk =   0.0019531
        k(  384) = (  -1.5805784   0.9125490   0.7949887), wk =   0.0019531
        k(  385) = (   4.7417353  -2.7376469   0.2510481), wk =   0.0019531
        k(  386) = (   3.9514461  -3.1939214   0.2928894), wk =   0.0019531
        k(  387) = (   3.1611569  -3.6501959   0.3347307), wk =   0.0019531
        k(  388) = (   2.3708677  -4.1064704   0.3765721), wk =   0.0019531
        k(  389) = (   1.5805784  -4.5627449   0.4184134), wk =   0.0019531
        k(  390) = (   0.7902892  -5.0190193   0.4602548), wk =   0.0019531
        k(  391) = (   0.0000000  -5.4752938   0.5020961), wk =   0.0019531
        k(  392) = (  -0.7902892  -5.9315683   0.5439375), wk =   0.0019531
        k(  393) = (   4.7417353  -1.8250979   0.2928899), wk =   0.0019531
        k(  394) = (   3.9514461  -2.2813724   0.3347312), wk =   0.0019531
        k(  395) = (   3.1611569  -2.7376469   0.3765725), wk =   0.0019531
        k(  396) = (   2.3708677  -3.1939214   0.4184139), wk =   0.0019531
        k(  397) = (   1.5805784  -3.6501959   0.4602552), wk =   0.0019531
        k(  398) = (   0.7902892  -4.1064704   0.5020966), wk =   0.0019531
        k(  399) = (   0.0000000  -4.5627449   0.5439379), wk =   0.0019531
        k(  400) = (  -0.7902892  -5.0190193   0.5857793), wk =   0.0019531
        k(  401) = (   4.7417353  -0.9125490   0.3347317), wk =   0.0019531
        k(  402) = (   3.9514461  -1.3688235   0.3765730), wk =   0.0019531
        k(  403) = (   3.1611569  -1.8250979   0.4184143), wk =   0.0019531
        k(  404) = (   2.3708677  -2.2813724   0.4602557), wk =   0.0019531
        k(  405) = (   1.5805784  -2.7376469   0.5020970), wk =   0.0019531
        k(  406) = (   0.7902892  -3.1939214   0.5439384), wk =   0.0019531
        k(  407) = (   0.0000000  -3.6501959   0.5857797), wk =   0.0019531
        k(  408) = (  -0.7902892  -4.1064704   0.6276211), wk =   0.0019531
        k(  409) = (   4.7417353   0.0000000   0.3765735), wk =   0.0019531
        k(  410) = (   3.9514461  -0.4562745   0.4184148), wk =   0.0019531
        k(  411) = (   3.1611569  -0.9125490   0.4602561), wk =   0.0019531
        k(  412) = (   2.3708677  -1.3688235   0.5020975), wk =   0.0019531
        k(  413) = (   1.5805784  -1.8250979   0.5439388), wk =   0.0019531
        k(  414) = (   0.7902892  -2.2813724   0.5857802), wk =   0.0019531
        k(  415) = (   0.0000000  -2.7376469   0.6276215), wk =   0.0019531
        k(  416) = (  -0.7902892  -3.1939214   0.6694629), wk =   0.0019531
        k(  417) = (   4.7417353   0.9125490   0.4184153), wk =   0.0019531
        k(  418) = (   3.9514461   0.4562745   0.4602566), wk =   0.0019531
        k(  419) = (   3.1611569   0.0000000   0.5020979), wk =   0.0019531
        k(  420) = (   2.3708677  -0.4562745   0.5439393), wk =   0.0019531
        k(  421) = (   1.5805784  -0.9125490   0.5857806), wk =   0.0019531
        k(  422) = (   0.7902892  -1.3688235   0.6276220), wk =   0.0019531
        k(  423) = (   0.0000000  -1.8250979   0.6694633), wk =   0.0019531
        k(  424) = (  -0.7902892  -2.2813724   0.7113047), wk =   0.0019531
        k(  425) = (   4.7417353   1.8250979   0.4602571), wk =   0.0019531
        k(  426) = (   3.9514461   1.3688235   0.5020984), wk =   0.0019531
        k(  427) = (   3.1611569   0.9125490   0.5439397), wk =   0.0019531
        k(  428) = (   2.3708677   0.4562745   0.5857811), wk =   0.0019531
        k(  429) = (   1.5805784   0.0000000   0.6276224), wk =   0.0019531
        k(  430) = (   0.7902892  -0.4562745   0.6694638), wk =   0.0019531
        k(  431) = (   0.0000000  -0.9125490   0.7113051), wk =   0.0019531
        k(  432) = (  -0.7902892  -1.3688235   0.7531465), wk =   0.0019531
        k(  433) = (   4.7417353   2.7376469   0.5020989), wk =   0.0019531
        k(  434) = (   3.9514461   2.2813724   0.5439402), wk =   0.0019531
        k(  435) = (   3.1611569   1.8250979   0.5857815), wk =   0.0019531
        k(  436) = (   2.3708677   1.3688235   0.6276229), wk =   0.0019531
        k(  437) = (   1.5805784   0.9125490   0.6694642), wk =   0.0019531
        k(  438) = (   0.7902892   0.4562745   0.7113056), wk =   0.0019531
        k(  439) = (   0.0000000   0.0000000   0.7531469), wk =   0.0019531
        k(  440) = (  -0.7902892  -0.4562745   0.7949883), wk =   0.0019531
        k(  441) = (   4.7417353   3.6501959   0.5439407), wk =   0.0019531
        k(  442) = (   3.9514461   3.1939214   0.5857820), wk =   0.0019531
        k(  443) = (   3.1611569   2.7376469   0.6276234), wk =   0.0019531
        k(  444) = (   2.3708677   2.2813724   0.6694647), wk =   0.0019531
        k(  445) = (   1.5805784   1.8250979   0.7113060), wk =   0.0019531
        k(  446) = (   0.7902892   1.3688235   0.7531474), wk =   0.0019531
        k(  447) = (   0.0000000   0.9125490   0.7949887), wk =   0.0019531
        k(  448) = (  -0.7902892   0.4562745   0.8368301), wk =   0.0019531
        k(  449) = (   5.5320245  -3.1939214   0.2928894), wk =   0.0019531
        k(  450) = (   4.7417353  -3.6501959   0.3347307), wk =   0.0019531
        k(  451) = (   3.9514461  -4.1064704   0.3765721), wk =   0.0019531
        k(  452) = (   3.1611569  -4.5627449   0.4184134), wk =   0.0019531
        k(  453) = (   2.3708677  -5.0190193   0.4602548), wk =   0.0019531
        k(  454) = (   1.5805784  -5.4752938   0.5020961), wk =   0.0019531
        k(  455) = (   0.7902892  -5.9315683   0.5439375), wk =   0.0019531
        k(  456) = (   0.0000000  -6.3878428   0.5857788), wk =   0.0019531
        k(  457) = (   5.5320245  -2.2813724   0.3347312), wk =   0.0019531
        k(  458) = (   4.7417353  -2.7376469   0.3765725), wk =   0.0019531
        k(  459) = (   3.9514461  -3.1939214   0.4184139), wk =   0.0019531
        k(  460) = (   3.1611569  -3.6501959   0.4602552), wk =   0.0019531
        k(  461) = (   2.3708677  -4.1064704   0.5020966), wk =   0.0019531
        k(  462) = (   1.5805784  -4.5627449   0.5439379), wk =   0.0019531
        k(  463) = (   0.7902892  -5.0190193   0.5857793), wk =   0.0019531
        k(  464) = (   0.0000000  -5.4752938   0.6276206), wk =   0.0019531
        k(  465) = (   5.5320245  -1.3688235   0.3765730), wk =   0.0019531
        k(  466) = (   4.7417353  -1.8250979   0.4184143), wk =   0.0019531
        k(  467) = (   3.9514461  -2.2813724   0.4602557), wk =   0.0019531
        k(  468) = (   3.1611569  -2.7376469   0.5020970), wk =   0.0019531
        k(  469) = (   2.3708677  -3.1939214   0.5439384), wk =   0.0019531
        k(  470) = (   1.5805784  -3.6501959   0.5857797), wk =   0.0019531
        k(  471) = (   0.7902892  -4.1064704   0.6276211), wk =   0.0019531
        k(  472) = (   0.0000000  -4.5627449   0.6694624), wk =   0.0019531
        k(  473) = (   5.5320245  -0.4562745   0.4184148), wk =   0.0019531
        k(  474) = (   4.7417353  -0.9125490   0.4602561), wk =   0.0019531
        k(  475) = (   3.9514461  -1.3688235   0.5020975), wk =   0.0019531
        k(  476) = (   3.1611569  -1.8250979   0.5439388), wk =   0.0019531
        k(  477) = (   2.3708677  -2.2813724   0.5857802), wk =   0.0019531
        k(  478) = (   1.5805784  -2.7376469   0.6276215), wk =   0.0019531
        k(  479) = (   0.7902892  -3.1939214   0.6694629), wk =   0.0019531
        k(  480) = (   0.0000000  -3.6501959   0.7113042), wk =   0.0019531
        k(  481) = (   5.5320245   0.4562745   0.4602566), wk =   0.0019531
        k(  482) = (   4.7417353  -0.0000000   0.5020979), wk =   0.0019531
        k(  483) = (   3.9514461  -0.4562745   0.5439393), wk =   0.0019531
        k(  484) = (   3.1611569  -0.9125490   0.5857806), wk =   0.0019531
        k(  485) = (   2.3708677  -1.3688235   0.6276220), wk =   0.0019531
        k(  486) = (   1.5805784  -1.8250979   0.6694633), wk =   0.0019531
        k(  487) = (   0.7902892  -2.2813724   0.7113047), wk =   0.0019531
        k(  488) = (   0.0000000  -2.7376469   0.7531460), wk =   0.0019531
        k(  489) = (   5.5320245   1.3688235   0.5020984), wk =   0.0019531
        k(  490) = (   4.7417353   0.9125490   0.5439397), wk =   0.0019531
        k(  491) = (   3.9514461   0.4562745   0.5857811), wk =   0.0019531
        k(  492) = (   3.1611569   0.0000000   0.6276224), wk =   0.0019531
        k(  493) = (   2.3708677  -0.4562745   0.6694638), wk =   0.0019531
        k(  494) = (   1.5805784  -0.9125490   0.7113051), wk =   0.0019531
        k(  495) = (   0.7902892  -1.3688235   0.7531465), wk =   0.0019531
        k(  496) = (   0.0000000  -1.8250979   0.7949878), wk =   0.0019531
        k(  497) = (   5.5320245   2.2813724   0.5439402), wk =   0.0019531
        k(  498) = (   4.7417353   1.8250979   0.5857815), wk =   0.0019531
        k(  499) = (   3.9514461   1.3688235   0.6276229), wk =   0.0019531
        k(  500) = (   3.1611569   0.9125490   0.6694642), wk =   0.0019531
        k(  501) = (   2.3708677   0.4562745   0.7113056), wk =   0.0019531
        k(  502) = (   1.5805784  -0.0000000   0.7531469), wk =   0.0019531
        k(  503) = (   0.7902892  -0.4562745   0.7949883), wk =   0.0019531
        k(  504) = (   0.0000000  -0.9125490   0.8368296), wk =   0.0019531
        k(  505) = (   5.5320245   3.1939214   0.5857820), wk =   0.0019531
        k(  506) = (   4.7417353   2.7376469   0.6276234), wk =   0.0019531
        k(  507) = (   3.9514461   2.2813724   0.6694647), wk =   0.0019531
        k(  508) = (   3.1611569   1.8250979   0.7113060), wk =   0.0019531
        k(  509) = (   2.3708677   1.3688235   0.7531474), wk =   0.0019531
        k(  510) = (   1.5805784   0.9125490   0.7949887), wk =   0.0019531
        k(  511) = (   0.7902892   0.4562745   0.8368301), wk =   0.0019531
        k(  512) = (   0.0000000   0.0000000   0.8786714), wk =   0.0019531

                       cryst. coord.
        k(    1) = (   0.0000000   0.0000000   0.0000000), wk =   0.0019531
        k(    2) = (   0.0000000   0.0000000   0.1250000), wk =   0.0019531
        k(    3) = (   0.0000000   0.0000000   0.2500000), wk =   0.0019531
        k(    4) = (  -0.0000000   0.0000000   0.3750000), wk =   0.0019531
        k(    5) = (   0.0000000   0.0000000   0.5000000), wk =   0.0019531
        k(    6) = (   0.0000000   0.0000000   0.6250000), wk =   0.0019531
        k(    7) = (  -0.0000000   0.0000000   0.7500000), wk =   0.0019531
        k(    8) = (   0.0000000   0.0000000   0.8750000), wk =   0.0019531
        k(    9) = (   0.0000000   0.1250000   0.0000000), wk =   0.0019531
        k(   10) = (   0.0000000   0.1250000   0.1250000), wk =   0.0019531
        k(   11) = (   0.0000000   0.1250000   0.2500000), wk =   0.0019531
        k(   12) = (  -0.0000000   0.1250000   0.3750000), wk =   0.0019531
        k(   13) = (   0.0000000   0.1250000   0.5000000), wk =   0.0019531
        k(   14) = (  -0.0000000   0.1250000   0.6250000), wk =   0.0019531
        k(   15) = (  -0.0000000   0.1250000   0.7500000), wk =   0.0019531
        k(   16) = (   0.0000000   0.1250000   0.8750000), wk =   0.0019531
        k(   17) = (   0.0000000   0.2500000   0.0000000), wk =   0.0019531
        k(   18) = (   0.0000000   0.2500000   0.1250000), wk =   0.0019531
        k(   19) = (   0.0000000   0.2500000   0.2500000), wk =   0.0019531
        k(   20) = (  -0.0000000   0.2500000   0.3750000), wk =   0.0019531
        k(   21) = (   0.0000000   0.2500000   0.5000000), wk =   0.0019531
        k(   22) = (   0.0000000   0.2500000   0.6250000), wk =   0.0019531
        k(   23) = (  -0.0000000   0.2500000   0.7500000), wk =   0.0019531
        k(   24) = (   0.0000000   0.2500000   0.8750000), wk =   0.0019531
        k(   25) = (   0.0000000   0.3750000   0.0000000), wk =   0.0019531
        k(   26) = (  -0.0000000   0.3750000   0.1250000), wk =   0.0019531
        k(   27) = (   0.0000000   0.3750000   0.2500000), wk =   0.0019531
        k(   28) = (   0.0000000   0.3750000   0.3750000), wk =   0.0019531
        k(   29) = (  -0.0000000   0.3750000   0.5000000), wk =   0.0019531
        k(   30) = (  -0.0000000   0.3750000   0.6250000), wk =   0.0019531
        k(   31) = (  -0.0000000   0.3750000   0.7500000), wk =   0.0019531
        k(   32) = (   0.0000000   0.3750000   0.8750000), wk =   0.0019531
        k(   33) = (   0.0000000   0.5000000   0.0000000), wk =   0.0019531
        k(   34) = (   0.0000000   0.5000000   0.1250000), wk =   0.0019531
        k(   35) = (   0.0000000   0.5000000   0.2500000), wk =   0.0019531
        k(   36) = (  -0.0000000   0.5000000   0.3750000), wk =   0.0019531
        k(   37) = (   0.0000000   0.5000000   0.5000000), wk =   0.0019531
        k(   38) = (   0.0000000   0.5000000   0.6250000), wk =   0.0019531
        k(   39) = (  -0.0000000   0.5000000   0.7500000), wk =   0.0019531
        k(   40) = (   0.0000000   0.5000000   0.8750000), wk =   0.0019531
        k(   41) = (   0.0000000   0.6250000   0.0000000), wk =   0.0019531
        k(   42) = (   0.0000000   0.6250000   0.1250000), wk =   0.0019531
        k(   43) = (   0.0000000   0.6250000   0.2500000), wk =   0.0019531
        k(   44) = (   0.0000000   0.6250000   0.3750000), wk =   0.0019531
        k(   45) = (   0.0000000   0.6250000   0.5000000), wk =   0.0019531
        k(   46) = (   0.0000000   0.6250000   0.6250000), wk =   0.0019531
        k(   47) = (  -0.0000000   0.6250000   0.7500000), wk =   0.0019531
        k(   48) = (   0.0000000   0.6250000   0.8750000), wk =   0.0019531
        k(   49) = (   0.0000000   0.7500000   0.0000000), wk =   0.0019531
        k(   50) = (   0.0000000   0.7500000   0.1250000), wk =   0.0019531
        k(   51) = (  -0.0000000   0.7500000   0.2500000), wk =   0.0019531
        k(   52) = (   0.0000000   0.7500000   0.3750000), wk =   0.0019531
        k(   53) = (   0.0000000   0.7500000   0.5000000), wk =   0.0019531
        k(   54) = (  -0.0000000   0.7500000   0.6250000), wk =   0.0019531
        k(   55) = (   0.0000000   0.7500000   0.7500000), wk =   0.0019531
        k(   56) = (   0.0000000   0.7500000   0.8750000), wk =   0.0019531
        k(   57) = (   0.0000000   0.8750000   0.0000000), wk =   0.0019531
        k(   58) = (   0.0000000   0.8750000   0.1250000), wk =   0.0019531
        k(   59) = (  -0.0000000   0.8750000   0.2500000), wk =   0.0019531
        k(   60) = (  -0.0000000   0.8750000   0.3750000), wk =   0.0019531
        k(   61) = (  -0.0000000   0.8750000   0.5000000), wk =   0.0019531
        k(   62) = (   0.0000000   0.8750000   0.6250000), wk =   0.0019531
        k(   63) = (  -0.0000000   0.8750000   0.7500000), wk =   0.0019531
        k(   64) = (   0.0000000   0.8750000   0.8750000), wk =   0.0019531
        k(   65) = (   0.1250000   0.0000000   0.0000000), wk =   0.0019531
        k(   66) = (   0.1250000   0.0000000   0.1250000), wk =   0.0019531
        k(   67) = (   0.1250000   0.0000000   0.2500000), wk =   0.0019531
        k(   68) = (   0.1250000   0.0000000   0.3750000), wk =   0.0019531
        k(   69) = (   0.1250000   0.0000000   0.5000000), wk =   0.0019531
        k(   70) = (   0.1250000   0.0000000   0.6250000), wk =   0.0019531
        k(   71) = (   0.1250000   0.0000000   0.7500000), wk =   0.0019531
        k(   72) = (   0.1250000   0.0000000   0.8750000), wk =   0.0019531
        k(   73) = (   0.1250000   0.1250000   0.0000000), wk =   0.0019531
        k(   74) = (   0.1250000   0.1250000   0.1250000), wk =   0.0019531
        k(   75) = (   0.1250000   0.1250000   0.2500000), wk =   0.0019531
        k(   76) = (   0.1250000   0.1250000   0.3750000), wk =   0.0019531
        k(   77) = (   0.1250000   0.1250000   0.5000000), wk =   0.0019531
        k(   78) = (   0.1250000   0.1250000   0.6250000), wk =   0.0019531
        k(   79) = (   0.1250000   0.1250000   0.7500000), wk =   0.0019531
        k(   80) = (   0.1250000   0.1250000   0.8750000), wk =   0.0019531
        k(   81) = (   0.1250000   0.2500000   0.0000000), wk =   0.0019531
        k(   82) = (   0.1250000   0.2500000   0.1250000), wk =   0.0019531
        k(   83) = (   0.1250000   0.2500000   0.2500000), wk =   0.0019531
        k(   84) = (   0.1250000   0.2500000   0.3750000), wk =   0.0019531
        k(   85) = (   0.1250000   0.2500000   0.5000000), wk =   0.0019531
        k(   86) = (   0.1250000   0.2500000   0.6250000), wk =   0.0019531
        k(   87) = (   0.1250000   0.2500000   0.7500000), wk =   0.0019531
        k(   88) = (   0.1250000   0.2500000   0.8750000), wk =   0.0019531
        k(   89) = (   0.1250000   0.3750000  -0.0000000), wk =   0.0019531
        k(   90) = (   0.1250000   0.3750000   0.1250000), wk =   0.0019531
        k(   91) = (   0.1250000   0.3750000   0.2500000), wk =   0.0019531
        k(   92) = (   0.1250000   0.3750000   0.3750000), wk =   0.0019531
        k(   93) = (   0.1250000   0.3750000   0.5000000), wk =   0.0019531
        k(   94) = (   0.1250000   0.3750000   0.6250000), wk =   0.0019531
        k(   95) = (   0.1250000   0.3750000   0.7500000), wk =   0.0019531
        k(   96) = (   0.1250000   0.3750000   0.8750000), wk =   0.0019531
        k(   97) = (   0.1250000   0.5000000   0.0000000), wk =   0.0019531
        k(   98) = (   0.1250000   0.5000000   0.1250000), wk =   0.0019531
        k(   99) = (   0.1250000   0.5000000   0.2500000), wk =   0.0019531
        k(  100) = (   0.1250000   0.5000000   0.3750000), wk =   0.0019531
        k(  101) = (   0.1250000   0.5000000   0.5000000), wk =   0.0019531
        k(  102) = (   0.1250000   0.5000000   0.6250000), wk =   0.0019531
        k(  103) = (   0.1250000   0.5000000   0.7500000), wk =   0.0019531
        k(  104) = (   0.1250000   0.5000000   0.8750000), wk =   0.0019531
        k(  105) = (   0.1250000   0.6250000   0.0000000), wk =   0.0019531
        k(  106) = (   0.1250000   0.6250000   0.1250000), wk =   0.0019531
        k(  107) = (   0.1250000   0.6250000   0.2500000), wk =   0.0019531
        k(  108) = (   0.1250000   0.6250000   0.3750000), wk =   0.0019531
        k(  109) = (   0.1250000   0.6250000   0.5000000), wk =   0.0019531
        k(  110) = (   0.1250000   0.6250000   0.6250000), wk =   0.0019531
        k(  111) = (   0.1250000   0.6250000   0.7500000), wk =   0.0019531
        k(  112) = (   0.1250000   0.6250000   0.8750000), wk =   0.0019531
        k(  113) = (   0.1250000   0.7500000   0.0000000), wk =   0.0019531
        k(  114) = (   0.1250000   0.7500000   0.1250000), wk =   0.0019531
        k(  115) = (   0.1250000   0.7500000   0.2500000), wk =   0.0019531
        k(  116) = (   0.1250000   0.7500000   0.3750000), wk =   0.0019531
        k(  117) = (   0.1250000   0.7500000   0.5000000), wk =   0.0019531
        k(  118) = (   0.1250000   0.7500000   0.6250000), wk =   0.0019531
        k(  119) = (   0.1250000   0.7500000   0.7500000), wk =   0.0019531
        k(  120) = (   0.1250000   0.7500000   0.8750000), wk =   0.0019531
        k(  121) = (   0.1250000   0.8750000   0.0000000), wk =   0.0019531
        k(  122) = (   0.1250000   0.8750000   0.1250000), wk =   0.0019531
        k(  123) = (   0.1250000   0.8750000   0.2500000), wk =   0.0019531
        k(  124) = (   0.1250000   0.8750000   0.3750000), wk =   0.0019531
        k(  125) = (   0.1250000   0.8750000   0.5000000), wk =   0.0019531
        k(  126) = (   0.1250000   0.8750000   0.6250000), wk =   0.0019531
        k(  127) = (   0.1250000   0.8750000   0.7500000), wk =   0.0019531
        k(  128) = (   0.1250000   0.8750000   0.8750000), wk =   0.0019531
        k(  129) = (   0.2500000   0.0000000   0.0000000), wk =   0.0019531
        k(  130) = (   0.2500000   0.0000000   0.1250000), wk =   0.0019531
        k(  131) = (   0.2500000   0.0000000   0.2500000), wk =   0.0019531
        k(  132) = (   0.2500000   0.0000000   0.3750000), wk =   0.0019531
        k(  133) = (   0.2500000   0.0000000   0.5000000), wk =   0.0019531
        k(  134) = (   0.2500000   0.0000000   0.6250000), wk =   0.0019531
        k(  135) = (   0.2500000   0.0000000   0.7500000), wk =   0.0019531
        k(  136) = (   0.2500000   0.0000000   0.8750000), wk =   0.0019531
        k(  137) = (   0.2500000   0.1250000   0.0000000), wk =   0.0019531
        k(  138) = (   0.2500000   0.1250000   0.1250000), wk =   0.0019531
        k(  139) = (   0.2500000   0.1250000   0.2500000), wk =   0.0019531
        k(  140) = (   0.2500000   0.1250000   0.3750000), wk =   0.0019531
        k(  141) = (   0.2500000   0.1250000   0.5000000), wk =   0.0019531
        k(  142) = (   0.2500000   0.1250000   0.6250000), wk =   0.0019531
        k(  143) = (   0.2500000   0.1250000   0.7500000), wk =   0.0019531
        k(  144) = (   0.2500000   0.1250000   0.8750000), wk =   0.0019531
        k(  145) = (   0.2500000   0.2500000   0.0000000), wk =   0.0019531
        k(  146) = (   0.2500000   0.2500000   0.1250000), wk =   0.0019531
        k(  147) = (   0.2500000   0.2500000   0.2500000), wk =   0.0019531
        k(  148) = (   0.2500000   0.2500000   0.3750000), wk =   0.0019531
        k(  149) = (   0.2500000   0.2500000   0.5000000), wk =   0.0019531
        k(  150) = (   0.2500000   0.2500000   0.6250000), wk =   0.0019531
        k(  151) = (   0.2500000   0.2500000   0.7500000), wk =   0.0019531
        k(  152) = (   0.2500000   0.2500000   0.8750000), wk =   0.0019531
        k(  153) = (   0.2500000   0.3750000   0.0000000), wk =   0.0019531
        k(  154) = (   0.2500000   0.3750000   0.1250000), wk =   0.0019531
        k(  155) = (   0.2500000   0.3750000   0.2500000), wk =   0.0019531
        k(  156) = (   0.2500000   0.3750000   0.3750000), wk =   0.0019531
        k(  157) = (   0.2500000   0.3750000   0.5000000), wk =   0.0019531
        k(  158) = (   0.2500000   0.3750000   0.6250000), wk =   0.0019531
        k(  159) = (   0.2500000   0.3750000   0.7500000), wk =   0.0019531
        k(  160) = (   0.2500000   0.3750000   0.8750000), wk =   0.0019531
        k(  161) = (   0.2500000   0.5000000   0.0000000), wk =   0.0019531
        k(  162) = (   0.2500000   0.5000000   0.1250000), wk =   0.0019531
        k(  163) = (   0.2500000   0.5000000   0.2500000), wk =   0.0019531
        k(  164) = (   0.2500000   0.5000000   0.3750000), wk =   0.0019531
        k(  165) = (   0.2500000   0.5000000   0.5000000), wk =   0.0019531
        k(  166) = (   0.2500000   0.5000000   0.6250000), wk =   0.0019531
        k(  167) = (   0.2500000   0.5000000   0.7500000), wk =   0.0019531
        k(  168) = (   0.2500000   0.5000000   0.8750000), wk =   0.0019531
        k(  169) = (   0.2500000   0.6250000   0.0000000), wk =   0.0019531
        k(  170) = (   0.2500000   0.6250000   0.1250000), wk =   0.0019531
        k(  171) = (   0.2500000   0.6250000   0.2500000), wk =   0.0019531
        k(  172) = (   0.2500000   0.6250000   0.3750000), wk =   0.0019531
        k(  173) = (   0.2500000   0.6250000   0.5000000), wk =   0.0019531
        k(  174) = (   0.2500000   0.6250000   0.6250000), wk =   0.0019531
        k(  175) = (   0.2500000   0.6250000   0.7500000), wk =   0.0019531
        k(  176) = (   0.2500000   0.6250000   0.8750000), wk =   0.0019531
        k(  177) = (   0.2500000   0.7500000  -0.0000000), wk =   0.0019531
        k(  178) = (   0.2500000   0.7500000   0.1250000), wk =   0.0019531
        k(  179) = (   0.2500000   0.7500000   0.2500000), wk =   0.0019531
        k(  180) = (   0.2500000   0.7500000   0.3750000), wk =   0.0019531
        k(  181) = (   0.2500000   0.7500000   0.5000000), wk =   0.0019531
        k(  182) = (   0.2500000   0.7500000   0.6250000), wk =   0.0019531
        k(  183) = (   0.2500000   0.7500000   0.7500000), wk =   0.0019531
        k(  184) = (   0.2500000   0.7500000   0.8750000), wk =   0.0019531
        k(  185) = (   0.2500000   0.8750000  -0.0000000), wk =   0.0019531
        k(  186) = (   0.2500000   0.8750000   0.1250000), wk =   0.0019531
        k(  187) = (   0.2500000   0.8750000   0.2500000), wk =   0.0019531
        k(  188) = (   0.2500000   0.8750000   0.3750000), wk =   0.0019531
        k(  189) = (   0.2500000   0.8750000   0.5000000), wk =   0.0019531
        k(  190) = (   0.2500000   0.8750000   0.6250000), wk =   0.0019531
        k(  191) = (   0.2500000   0.8750000   0.7500000), wk =   0.0019531
        k(  192) = (   0.2500000   0.8750000   0.8750000), wk =   0.0019531
        k(  193) = (   0.3750000   0.0000000  -0.0000000), wk =   0.0019531
        k(  194) = (   0.3750000   0.0000000   0.1250000), wk =   0.0019531
        k(  195) = (   0.3750000   0.0000000   0.2500000), wk =   0.0019531
        k(  196) = (   0.3750000   0.0000000   0.3750000), wk =   0.0019531
        k(  197) = (   0.3750000   0.0000000   0.5000000), wk =   0.0019531
        k(  198) = (   0.3750000   0.0000000   0.6250000), wk =   0.0019531
        k(  199) = (   0.3750000   0.0000000   0.7500000), wk =   0.0019531
        k(  200) = (   0.3750000   0.0000000   0.8750000), wk =   0.0019531
        k(  201) = (   0.3750000   0.1250000  -0.0000000), wk =   0.0019531
        k(  202) = (   0.3750000   0.1250000   0.1250000), wk =   0.0019531
        k(  203) = (   0.3750000   0.1250000   0.2500000), wk =   0.0019531
        k(  204) = (   0.3750000   0.1250000   0.3750000), wk =   0.0019531
        k(  205) = (   0.3750000   0.1250000   0.5000000), wk =   0.0019531
        k(  206) = (   0.3750000   0.1250000   0.6250000), wk =   0.0019531
        k(  207) = (   0.3750000   0.1250000   0.7500000), wk =   0.0019531
        k(  208) = (   0.3750000   0.1250000   0.8750000), wk =   0.0019531
        k(  209) = (   0.3750000   0.2500000  -0.0000000), wk =   0.0019531
        k(  210) = (   0.3750000   0.2500000   0.1250000), wk =   0.0019531
        k(  211) = (   0.3750000   0.2500000   0.2500000), wk =   0.0019531
        k(  212) = (   0.3750000   0.2500000   0.3750000), wk =   0.0019531
        k(  213) = (   0.3750000   0.2500000   0.5000000), wk =   0.0019531
        k(  214) = (   0.3750000   0.2500000   0.6250000), wk =   0.0019531
        k(  215) = (   0.3750000   0.2500000   0.7500000), wk =   0.0019531
        k(  216) = (   0.3750000   0.2500000   0.8750000), wk =   0.0019531
        k(  217) = (   0.3750000   0.3750000   0.0000000), wk =   0.0019531
        k(  218) = (   0.3750000   0.3750000   0.1250000), wk =   0.0019531
        k(  219) = (   0.3750000   0.3750000   0.2500000), wk =   0.0019531
        k(  220) = (   0.3750000   0.3750000   0.3750000), wk =   0.0019531
        k(  221) = (   0.3750000   0.3750000   0.5000000), wk =   0.0019531
        k(  222) = (   0.3750000   0.3750000   0.6250000), wk =   0.0019531
        k(  223) = (   0.3750000   0.3750000   0.7500000), wk =   0.0019531
        k(  224) = (   0.3750000   0.3750000   0.8750000), wk =   0.0019531
        k(  225) = (   0.3750000   0.5000000  -0.0000000), wk =   0.0019531
        k(  226) = (   0.3750000   0.5000000   0.1250000), wk =   0.0019531
        k(  227) = (   0.3750000   0.5000000   0.2500000), wk =   0.0019531
        k(  228) = (   0.3750000   0.5000000   0.3750000), wk =   0.0019531
        k(  229) = (   0.3750000   0.5000000   0.5000000), wk =   0.0019531
        k(  230) = (   0.3750000   0.5000000   0.6250000), wk =   0.0019531
        k(  231) = (   0.3750000   0.5000000   0.7500000), wk =   0.0019531
        k(  232) = (   0.3750000   0.5000000   0.8750000), wk =   0.0019531
        k(  233) = (   0.3750000   0.6250000   0.0000000), wk =   0.0019531
        k(  234) = (   0.3750000   0.6250000   0.1250000), wk =   0.0019531
        k(  235) = (   0.3750000   0.6250000   0.2500000), wk =   0.0019531
        k(  236) = (   0.3750000   0.6250000   0.3750000), wk =   0.0019531
        k(  237) = (   0.3750000   0.6250000   0.5000000), wk =   0.0019531
        k(  238) = (   0.3750000   0.6250000   0.6250000), wk =   0.0019531
        k(  239) = (   0.3750000   0.6250000   0.7500000), wk =   0.0019531
        k(  240) = (   0.3750000   0.6250000   0.8750000), wk =   0.0019531
        k(  241) = (   0.3750000   0.7500000   0.0000000), wk =   0.0019531
        k(  242) = (   0.3750000   0.7500000   0.1250000), wk =   0.0019531
        k(  243) = (   0.3750000   0.7500000   0.2500000), wk =   0.0019531
        k(  244) = (   0.3750000   0.7500000   0.3750000), wk =   0.0019531
        k(  245) = (   0.3750000   0.7500000   0.5000000), wk =   0.0019531
        k(  246) = (   0.3750000   0.7500000   0.6250000), wk =   0.0019531
        k(  247) = (   0.3750000   0.7500000   0.7500000), wk =   0.0019531
        k(  248) = (   0.3750000   0.7500000   0.8750000), wk =   0.0019531
        k(  249) = (   0.3750000   0.8750000  -0.0000000), wk =   0.0019531
        k(  250) = (   0.3750000   0.8750000   0.1250000), wk =   0.0019531
        k(  251) = (   0.3750000   0.8750000   0.2500000), wk =   0.0019531
        k(  252) = (   0.3750000   0.8750000   0.3750000), wk =   0.0019531
        k(  253) = (   0.3750000   0.8750000   0.5000000), wk =   0.0019531
        k(  254) = (   0.3750000   0.8750000   0.6250000), wk =   0.0019531
        k(  255) = (   0.3750000   0.8750000   0.7500000), wk =   0.0019531
        k(  256) = (   0.3750000   0.8750000   0.8750000), wk =   0.0019531
        k(  257) = (   0.5000000   0.0000000   0.0000000), wk =   0.0019531
        k(  258) = (   0.5000000   0.0000000   0.1250000), wk =   0.0019531
        k(  259) = (   0.5000000   0.0000000   0.2500000), wk =   0.0019531
        k(  260) = (   0.5000000   0.0000000   0.3750000), wk =   0.0019531
        k(  261) = (   0.5000000   0.0000000   0.5000000), wk =   0.0019531
        k(  262) = (   0.5000000   0.0000000   0.6250000), wk =   0.0019531
        k(  263) = (   0.5000000   0.0000000   0.7500000), wk =   0.0019531
        k(  264) = (   0.5000000   0.0000000   0.8750000), wk =   0.0019531
        k(  265) = (   0.5000000   0.1250000   0.0000000), wk =   0.0019531
        k(  266) = (   0.5000000   0.1250000   0.1250000), wk =   0.0019531
        k(  267) = (   0.5000000   0.1250000   0.2500000), wk =   0.0019531
        k(  268) = (   0.5000000   0.1250000   0.3750000), wk =   0.0019531
        k(  269) = (   0.5000000   0.1250000   0.5000000), wk =   0.0019531
        k(  270) = (   0.5000000   0.1250000   0.6250000), wk =   0.0019531
        k(  271) = (   0.5000000   0.1250000   0.7500000), wk =   0.0019531
        k(  272) = (   0.5000000   0.1250000   0.8750000), wk =   0.0019531
        k(  273) = (   0.5000000   0.2500000   0.0000000), wk =   0.0019531
        k(  274) = (   0.5000000   0.2500000   0.1250000), wk =   0.0019531
        k(  275) = (   0.5000000   0.2500000   0.2500000), wk =   0.0019531
        k(  276) = (   0.5000000   0.2500000   0.3750000), wk =   0.0019531
        k(  277) = (   0.5000000   0.2500000   0.5000000), wk =   0.0019531
        k(  278) = (   0.5000000   0.2500000   0.6250000), wk =   0.0019531
        k(  279) = (   0.5000000   0.2500000   0.7500000), wk =   0.0019531
        k(  280) = (   0.5000000   0.2500000   0.8750000), wk =   0.0019531
        k(  281) = (   0.5000000   0.3750000  -0.0000000), wk =   0.0019531
        k(  282) = (   0.5000000   0.3750000   0.1250000), wk =   0.0019531
        k(  283) = (   0.5000000   0.3750000   0.2500000), wk =   0.0019531
        k(  284) = (   0.5000000   0.3750000   0.3750000), wk =   0.0019531
        k(  285) = (   0.5000000   0.3750000   0.5000000), wk =   0.0019531
        k(  286) = (   0.5000000   0.3750000   0.6250000), wk =   0.0019531
        k(  287) = (   0.5000000   0.3750000   0.7500000), wk =   0.0019531
        k(  288) = (   0.5000000   0.3750000   0.8750000), wk =   0.0019531
        k(  289) = (   0.5000000   0.5000000   0.0000000), wk =   0.0019531
        k(  290) = (   0.5000000   0.5000000   0.1250000), wk =   0.0019531
        k(  291) = (   0.5000000   0.5000000   0.2500000), wk =   0.0019531
        k(  292) = (   0.5000000   0.5000000   0.3750000), wk =   0.0019531
        k(  293) = (   0.5000000   0.5000000   0.5000000), wk =   0.0019531
        k(  294) = (   0.5000000   0.5000000   0.6250000), wk =   0.0019531
        k(  295) = (   0.5000000   0.5000000   0.7500000), wk =   0.0019531
        k(  296) = (   0.5000000   0.5000000   0.8750000), wk =   0.0019531
        k(  297) = (   0.5000000   0.6250000   0.0000000), wk =   0.0019531
        k(  298) = (   0.5000000   0.6250000   0.1250000), wk =   0.0019531
        k(  299) = (   0.5000000   0.6250000   0.2500000), wk =   0.0019531
        k(  300) = (   0.5000000   0.6250000   0.3750000), wk =   0.0019531
        k(  301) = (   0.5000000   0.6250000   0.5000000), wk =   0.0019531
        k(  302) = (   0.5000000   0.6250000   0.6250000), wk =   0.0019531
        k(  303) = (   0.5000000   0.6250000   0.7500000), wk =   0.0019531
        k(  304) = (   0.5000000   0.6250000   0.8750000), wk =   0.0019531
        k(  305) = (   0.5000000   0.7500000   0.0000000), wk =   0.0019531
        k(  306) = (   0.5000000   0.7500000   0.1250000), wk =   0.0019531
        k(  307) = (   0.5000000   0.7500000   0.2500000), wk =   0.0019531
        k(  308) = (   0.5000000   0.7500000   0.3750000), wk =   0.0019531
        k(  309) = (   0.5000000   0.7500000   0.5000000), wk =   0.0019531
        k(  310) = (   0.5000000   0.7500000   0.6250000), wk =   0.0019531
        k(  311) = (   0.5000000   0.7500000   0.7500000), wk =   0.0019531
        k(  312) = (   0.5000000   0.7500000   0.8750000), wk =   0.0019531
        k(  313) = (   0.5000000   0.8750000  -0.0000000), wk =   0.0019531
        k(  314) = (   0.5000000   0.8750000   0.1250000), wk =   0.0019531
        k(  315) = (   0.5000000   0.8750000   0.2500000), wk =   0.0019531
        k(  316) = (   0.5000000   0.8750000   0.3750000), wk =   0.0019531
        k(  317) = (   0.5000000   0.8750000   0.5000000), wk =   0.0019531
        k(  318) = (   0.5000000   0.8750000   0.6250000), wk =   0.0019531
        k(  319) = (   0.5000000   0.8750000   0.7500000), wk =   0.0019531
        k(  320) = (   0.5000000   0.8750000   0.8750000), wk =   0.0019531
        k(  321) = (   0.6250000   0.0000000   0.0000000), wk =   0.0019531
        k(  322) = (   0.6250000   0.0000000   0.1250000), wk =   0.0019531
        k(  323) = (   0.6250000   0.0000000   0.2500000), wk =   0.0019531
        k(  324) = (   0.6250000   0.0000000   0.3750000), wk =   0.0019531
        k(  325) = (   0.6250000   0.0000000   0.5000000), wk =   0.0019531
        k(  326) = (   0.6250000   0.0000000   0.6250000), wk =   0.0019531
        k(  327) = (   0.6250000   0.0000000   0.7500000), wk =   0.0019531
        k(  328) = (   0.6250000   0.0000000   0.8750000), wk =   0.0019531
        k(  329) = (   0.6250000   0.1250000  -0.0000000), wk =   0.0019531
        k(  330) = (   0.6250000   0.1250000   0.1250000), wk =   0.0019531
        k(  331) = (   0.6250000   0.1250000   0.2500000), wk =   0.0019531
        k(  332) = (   0.6250000   0.1250000   0.3750000), wk =   0.0019531
        k(  333) = (   0.6250000   0.1250000   0.5000000), wk =   0.0019531
        k(  334) = (   0.6250000   0.1250000   0.6250000), wk =   0.0019531
        k(  335) = (   0.6250000   0.1250000   0.7500000), wk =   0.0019531
        k(  336) = (   0.6250000   0.1250000   0.8750000), wk =   0.0019531
        k(  337) = (   0.6250000   0.2500000   0.0000000), wk =   0.0019531
        k(  338) = (   0.6250000   0.2500000   0.1250000), wk =   0.0019531
        k(  339) = (   0.6250000   0.2500000   0.2500000), wk =   0.0019531
        k(  340) = (   0.6250000   0.2500000   0.3750000), wk =   0.0019531
        k(  341) = (   0.6250000   0.2500000   0.5000000), wk =   0.0019531
        k(  342) = (   0.6250000   0.2500000   0.6250000), wk =   0.0019531
        k(  343) = (   0.6250000   0.2500000   0.7500000), wk =   0.0019531
        k(  344) = (   0.6250000   0.2500000   0.8750000), wk =   0.0019531
        k(  345) = (   0.6250000   0.3750000  -0.0000000), wk =   0.0019531
        k(  346) = (   0.6250000   0.3750000   0.1250000), wk =   0.0019531
        k(  347) = (   0.6250000   0.3750000   0.2500000), wk =   0.0019531
        k(  348) = (   0.6250000   0.3750000   0.3750000), wk =   0.0019531
        k(  349) = (   0.6250000   0.3750000   0.5000000), wk =   0.0019531
        k(  350) = (   0.6250000   0.3750000   0.6250000), wk =   0.0019531
        k(  351) = (   0.6250000   0.3750000   0.7500000), wk =   0.0019531
        k(  352) = (   0.6250000   0.3750000   0.8750000), wk =   0.0019531
        k(  353) = (   0.6250000   0.5000000   0.0000000), wk =   0.0019531
        k(  354) = (   0.6250000   0.5000000   0.1250000), wk =   0.0019531
        k(  355) = (   0.6250000   0.5000000   0.2500000), wk =   0.0019531
        k(  356) = (   0.6250000   0.5000000   0.3750000), wk =   0.0019531
        k(  357) = (   0.6250000   0.5000000   0.5000000), wk =   0.0019531
        k(  358) = (   0.6250000   0.5000000   0.6250000), wk =   0.0019531
        k(  359) = (   0.6250000   0.5000000   0.7500000), wk =   0.0019531
        k(  360) = (   0.6250000   0.5000000   0.8750000), wk =   0.0019531
        k(  361) = (   0.6250000   0.6250000   0.0000000), wk =   0.0019531
        k(  362) = (   0.6250000   0.6250000   0.1250000), wk =   0.0019531
        k(  363) = (   0.6250000   0.6250000   0.2500000), wk =   0.0019531
        k(  364) = (   0.6250000   0.6250000   0.3750000), wk =   0.0019531
        k(  365) = (   0.6250000   0.6250000   0.5000000), wk =   0.0019531
        k(  366) = (   0.6250000   0.6250000   0.6250000), wk =   0.0019531
        k(  367) = (   0.6250000   0.6250000   0.7500000), wk =   0.0019531
        k(  368) = (   0.6250000   0.6250000   0.8750000), wk =   0.0019531
        k(  369) = (   0.6250000   0.7500000  -0.0000000), wk =   0.0019531
        k(  370) = (   0.6250000   0.7500000   0.1250000), wk =   0.0019531
        k(  371) = (   0.6250000   0.7500000   0.2500000), wk =   0.0019531
        k(  372) = (   0.6250000   0.7500000   0.3750000), wk =   0.0019531
        k(  373) = (   0.6250000   0.7500000   0.5000000), wk =   0.0019531
        k(  374) = (   0.6250000   0.7500000   0.6250000), wk =   0.0019531
        k(  375) = (   0.6250000   0.7500000   0.7500000), wk =   0.0019531
        k(  376) = (   0.6250000   0.7500000   0.8750000), wk =   0.0019531
        k(  377) = (   0.6250000   0.8750000   0.0000000), wk =   0.0019531
        k(  378) = (   0.6250000   0.8750000   0.1250000), wk =   0.0019531
        k(  379) = (   0.6250000   0.8750000   0.2500000), wk =   0.0019531
        k(  380) = (   0.6250000   0.8750000   0.3750000), wk =   0.0019531
        k(  381) = (   0.6250000   0.8750000   0.5000000), wk =   0.0019531
        k(  382) = (   0.6250000   0.8750000   0.6250000), wk =   0.0019531
        k(  383) = (   0.6250000   0.8750000   0.7500000), wk =   0.0019531
        k(  384) = (   0.6250000   0.8750000   0.8750000), wk =   0.0019531
        k(  385) = (   0.7500000   0.0000000  -0.0000000), wk =   0.0019531
        k(  386) = (   0.7500000   0.0000000   0.1250000), wk =   0.0019531
        k(  387) = (   0.7500000   0.0000000   0.2500000), wk =   0.0019531
        k(  388) = (   0.7500000   0.0000000   0.3750000), wk =   0.0019531
        k(  389) = (   0.7500000   0.0000000   0.5000000), wk =   0.0019531
        k(  390) = (   0.7500000   0.0000000   0.6250000), wk =   0.0019531
        k(  391) = (   0.7500000   0.0000000   0.7500000), wk =   0.0019531
        k(  392) = (   0.7500000   0.0000000   0.8750000), wk =   0.0019531
        k(  393) = (   0.7500000   0.1250000  -0.0000000), wk =   0.0019531
[...]
     9.1798   9.1878   9.3094   9.3157   9.5938   9.5951   9.8428   9.8429
     9.9693   9.9712  10.1450  10.1470  10.5404  10.5426  10.6593  10.6622
    10.8406  10.8447  11.0438  11.0470  11.4639  11.4660  11.6154  11.6203
    11.9033  11.9079  12.0195  12.0231  12.5294  12.5376  13.1545  13.1635
    13.5178  13.5191  13.7780  13.7803  14.1411  14.1457  14.3814  14.3860
    14.6988  14.7015  14.7944  14.7947  14.8066  14.8130  15.1371  15.1383
    15.3291  15.3362  15.5655  15.5713  15.6431  15.6452  15.9307  15.9319
    15.9715  15.9723  16.0050  16.0053  16.0828  16.0848  16.6342  16.6350
    16.6897  16.6923  16.7214  16.7236  16.8112  16.8124  16.8510  16.8540
    16.9109  16.9150  16.9815  16.9849  17.3511  17.3513  17.4878  17.4881
    17.9635  17.9648  18.0679  18.0686  18.1556  18.1558  18.3842  18.3863

     occupation numbers 
     1.0000   1.0000   1.0000   1.0000   1.0000   1.0000   1.0000   1.0000
     1.0000   1.0000   1.0000   1.0000   1.0000   1.0000   1.0000   1.0000
     1.0000   1.0000   1.0000   1.0000   1.0000   1.0000   1.0000   1.0000
     1.0000   1.0000   1.0000   1.0000   1.0000   1.0000   1.0000   1.0000
     1.0000   1.0000   1.0000   1.0000   1.0000   1.0000   1.0000   1.0000
     1.0000   1.0000   1.0000   1.0000   1.0000   1.0000   1.0000   1.0000
     1.0000   1.0000   1.0000   1.0000   1.0000   1.0000   1.0000   1.0000
     1.0000   1.0000   1.0000   1.0000   1.0000   1.0000   1.0000   1.0000
     1.0000   1.0000   1.0000   1.0000   1.0000   1.0000   1.0000   1.0000
     1.0000   1.0000   1.0000   1.0000   1.0000   1.0000   1.0000   1.0000
     1.0000   1.0000   1.0000   1.0000   1.0000   1.0000   1.0000   1.0000
     1.0000   1.0000   1.0000   1.0000   1.0000   1.0000   1.0000   1.0000
     1.0000   1.0000   1.0000   1.0000   1.0000   1.0000   1.0000   1.0000
     1.0000   1.0000   1.0000   1.0000   1.0000   1.0000   1.0000   1.0000
     1.0000   1.0000   1.0000   1.0000   1.0000   1.0000   1.0000   1.0000
     1.0000   1.0000   1.0000   1.0000   1.0000   1.0000   1.0000   1.0000
     1.0000   1.0000   1.0000   1.0000   1.0000   1.0000   1.0000   1.0000
     1.0000   1.0000   0.0000   0.0000   0.0000   0.0000   0.0000   0.0000
     0.0000   0.0000   0.0000   0.0000   0.0000   0.0000   0.0000   0.0000
     0.0000   0.0000   0.0000   0.0000   0.0000   0.0000   0.0000   0.0000
     0.0000   0.0000   0.0000   0.0000   0.0000   0.0000   0.0000   0.0000
     0.0000   0.0000   0.0000   0.0000   0.0000   0.0000   0.0000   0.0000
     0.0000   0.0000   0.0000   0.0000   0.0000   0.0000   0.0000   0.0000
     0.0000   0.0000   0.0000   0.0000   0.0000   0.0000   0.0000   0.0000
     0.0000   0.0000   0.0000   0.0000   0.0000   0.0000   0.0000   0.0000
     0.0000   0.0000   0.0000   0.0000   0.0000   0.0000   0.0000   0.0000
     0.0000   0.0000   0.0000   0.0000   0.0000   0.0000   0.0000   0.0000
     0.0000   0.0000   0.0000   0.0000   0.0000   0.0000   0.0000   0.0000
     0.0000   0.0000   0.0000   0.0000   0.0000   0.0000   0.0000   0.0000
     0.0000   0.0000   0.0000   0.0000   0.0000   0.0000   0.0000   0.0000

          k = 1.5806 0.9125 0.7950 ( 23481 PWs)   bands (ev):

   -74.0149 -73.9996 -69.4454 -69.4302 -43.2673 -43.2521 -42.8558 -42.8406
   -42.3515 -42.3363 -38.6246 -38.6094 -38.2047 -38.1896 -37.8761 -37.8609
   -16.9744 -16.9743 -16.9666 -16.9665 -16.9662 -16.9661 -16.9650 -16.9649
   -16.9643 -16.9642 -16.9588 -16.9587 -16.9574 -16.9574 -16.9568 -16.9567
   -13.9968 -13.9967 -13.9916 -13.9916 -13.9893 -13.9893 -13.9863 -13.9862
   -13.9842 -13.9841 -13.9807 -13.9806 -13.9788 -13.9787 -13.9762 -13.9761
   -13.9748 -13.9747 -13.9731 -13.9730 -13.9686 -13.9685 -13.9674 -13.9673
    -4.9860  -4.9846  -4.9645  -4.9636  -4.7837  -4.7826  -4.7506  -4.7496
    -3.5027  -3.4988  -3.3841  -3.3799  -3.0978  -3.0960  -2.9693  -2.9665
    -1.6800  -1.6790  -1.6136  -1.6134  -1.2947  -1.2946  -1.2641  -1.2626
     3.1963   3.2029   3.3434   3.3475   3.6132   3.6169   3.7326   3.7387
     3.8966   3.8978   4.0399   4.0491   4.2742   4.2784   4.3122   4.3227
     4.4129   4.4184   4.6943   4.7055   4.7594   4.7650   4.8273   4.8345
     4.9323   4.9410   5.0791   5.0806   5.1920   5.1943   5.2921   5.2935
     5.3470   5.3503   5.6497   5.6505   5.7832   5.7842   5.9243   5.9257
     6.0866   6.0904   6.1690   6.1721   6.3727   6.3751   6.4474   6.4517
     6.5776   6.5855   6.7079   6.7083   7.1359   7.1409   7.2085   7.2096
     7.4424   7.4508   8.2591   8.2601   8.3887   8.3903   8.5511   8.5647
     8.8793   8.8799   8.9187   8.9230   8.9953   9.0000   9.1175   9.1229
     9.1707   9.1762   9.3623   9.3715   9.7248   9.7270   9.7731   9.7751
    10.0216  10.0252  10.1785  10.1822  10.3053  10.3059  10.5823  10.5840
    10.8037  10.8069  11.0401  11.0444  11.5727  11.5792  11.8429  11.8451
    12.0986  12.1025  12.3308  12.3390  12.4490  12.4516  12.8126  12.8224
    13.3459  13.3475  13.4699  13.4732  13.6097  13.6100  13.6421  13.6479
    13.7920  13.7963  14.0727  14.0751  14.1926  14.2011  14.3736  14.3769
    14.4330  14.4343  14.7242  14.7252  14.8032  14.8037  14.8406  14.8436
    14.9349  14.9355  15.0744  15.0788  15.2614  15.2619  15.5564  15.5571
    15.6898  15.6908  15.9797  15.9811  16.0283  16.0307  16.1374  16.1377
    16.3310  16.3313  16.5298  16.5300  16.6984  16.7000  16.9478  16.9487
    17.0393  17.0394  17.1266  17.1269  17.3395  17.3398  17.5585  17.5587

     occupation numbers 
     1.0000   1.0000   1.0000   1.0000   1.0000   1.0000   1.0000   1.0000
     1.0000   1.0000   1.0000   1.0000   1.0000   1.0000   1.0000   1.0000
     1.0000   1.0000   1.0000   1.0000   1.0000   1.0000   1.0000   1.0000
     1.0000   1.0000   1.0000   1.0000   1.0000   1.0000   1.0000   1.0000
     1.0000   1.0000   1.0000   1.0000   1.0000   1.0000   1.0000   1.0000
     1.0000   1.0000   1.0000   1.0000   1.0000   1.0000   1.0000   1.0000
     1.0000   1.0000   1.0000   1.0000   1.0000   1.0000   1.0000   1.0000
     1.0000   1.0000   1.0000   1.0000   1.0000   1.0000   1.0000   1.0000
     1.0000   1.0000   1.0000   1.0000   1.0000   1.0000   1.0000   1.0000
     1.0000   1.0000   1.0000   1.0000   1.0000   1.0000   1.0000   1.0000
     1.0000   1.0000   1.0000   1.0000   1.0000   1.0000   1.0000   1.0000
     1.0000   1.0000   1.0000   1.0000   1.0000   1.0000   1.0000   1.0000
     1.0000   1.0000   1.0000   1.0000   1.0000   1.0000   1.0000   1.0000
     1.0000   1.0000   1.0000   1.0000   1.0000   1.0000   1.0000   1.0000
     1.0000   1.0000   1.0000   1.0000   1.0000   1.0000   1.0000   1.0000
     1.0000   1.0000   1.0000   1.0000   1.0000   1.0000   1.0000   1.0000
     1.0000   1.0000   1.0000   1.0000   1.0000   1.0000   1.0000   1.0000
     1.0000   1.0000   0.0000   0.0000   0.0000   0.0000   0.0000   0.0000
     0.0000   0.0000   0.0000   0.0000   0.0000   0.0000   0.0000   0.0000
     0.0000   0.0000   0.0000   0.0000   0.0000   0.0000   0.0000   0.0000
     0.0000   0.0000   0.0000   0.0000   0.0000   0.0000   0.0000   0.0000
     0.0000   0.0000   0.0000   0.0000   0.0000   0.0000   0.0000   0.0000
     0.0000   0.0000   0.0000   0.0000   0.0000   0.0000   0.0000   0.0000
     0.0000   0.0000   0.0000   0.0000   0.0000   0.0000   0.0000   0.0000
     0.0000   0.0000   0.0000   0.0000   0.0000   0.0000   0.0000   0.0000
     0.0000   0.0000   0.0000   0.0000   0.0000   0.0000   0.0000   0.0000
     0.0000   0.0000   0.0000   0.0000   0.0000   0.0000   0.0000   0.0000
     0.0000   0.0000   0.0000   0.0000   0.0000   0.0000   0.0000   0.0000
     0.0000   0.0000   0.0000   0.0000   0.0000   0.0000   0.0000   0.0000
     0.0000   0.0000   0.0000   0.0000   0.0000   0.0000   0.0000   0.0000

          k = 0.7903 0.4563 0.8368 ( 23444 PWs)   bands (ev):

   -74.0149 -73.9996 -69.4454 -69.4302 -43.2672 -43.2519 -42.8559 -42.8407
   -42.3514 -42.3362 -38.6244 -38.6092 -38.2047 -38.1896 -37.8759 -37.8607
   -16.9754 -16.9754 -16.9676 -16.9676 -16.9667 -16.9667 -16.9649 -16.9649
   -16.9644 -16.9644 -16.9594 -16.9594 -16.9575 -16.9574 -16.9568 -16.9567
   -13.9976 -13.9976 -13.9901 -13.9901 -13.9895 -13.9895 -13.9877 -13.9876
   -13.9820 -13.9819 -13.9802 -13.9802 -13.9791 -13.9790 -13.9783 -13.9783
   -13.9770 -13.9770 -13.9714 -13.9714 -13.9706 -13.9706 -13.9696 -13.9695
    -5.3855  -5.3842  -5.3586  -5.3577  -5.1734  -5.1723  -5.1306  -5.1296
    -3.7724  -3.7692  -3.5980  -3.5943  -3.3032  -3.3021  -3.0898  -3.0880
    -1.5109  -1.5103  -1.2788  -1.2786  -0.9072  -0.9067  -0.7319  -0.7314
     3.5467   3.5577   3.8619   3.8722   4.0632   4.0751   4.2504   4.2636
     4.3904   4.3941   4.4455   4.4487   4.7104   4.7213   4.7412   4.7533
     4.7875   4.7991   5.0145   5.0191   5.0650   5.0735   5.3032   5.3097
     5.4201   5.4248   5.6232   5.6250   5.6856   5.6870   5.7511   5.7545
     5.9296   5.9341   6.0807   6.0845   6.2283   6.2302   6.3639   6.3652
     6.4401   6.4421   6.6245   6.6294   6.8125   6.8146   6.9050   6.9064
     7.0437   7.0462   7.0864   7.0877   7.3235   7.3270   7.4847   7.4903
     7.5371   7.5404   8.0298   8.0326   8.0839   8.0869   8.4968   8.4991
     8.5844   8.5874   8.6573   8.6705   8.8038   8.8177   9.0069   9.0181
     9.0405   9.0490   9.2197   9.2268   9.5330   9.5356   9.6556   9.6599
     9.7668   9.7706   9.8715   9.8749   9.9656   9.9698  10.0936  10.0989
    10.3819  10.3902  10.4527  10.4612  11.6177  11.6282  11.8560  11.8662
    12.1048  12.1141  12.4983  12.5067  12.7898  12.7916  12.9119  12.9166
    13.0330  13.0347  13.1233  13.1263  13.1498  13.1584  13.2798  13.2809
    13.5190  13.5224  13.7216  13.7320  13.8515  13.8545  13.9390  13.9423
    13.9794  13.9832  14.0071  14.0080  14.2219  14.2234  14.3691  14.3693
    14.5194  14.5220  14.6579  14.6587  14.7517  14.7533  14.9996  15.0000
    15.1169  15.1178  15.4478  15.4486  15.8264  15.8275  15.8452  15.8464
    15.8834  15.8840  16.0414  16.0434  16.1710  16.1735  16.2272  16.2285
    16.2728  16.2740  16.3508  16.3511  16.4550  16.4552  16.6737  16.6741

     occupation numbers 
     1.0000   1.0000   1.0000   1.0000   1.0000   1.0000   1.0000   1.0000
     1.0000   1.0000   1.0000   1.0000   1.0000   1.0000   1.0000   1.0000
     1.0000   1.0000   1.0000   1.0000   1.0000   1.0000   1.0000   1.0000
     1.0000   1.0000   1.0000   1.0000   1.0000   1.0000   1.0000   1.0000
     1.0000   1.0000   1.0000   1.0000   1.0000   1.0000   1.0000   1.0000
     1.0000   1.0000   1.0000   1.0000   1.0000   1.0000   1.0000   1.0000
     1.0000   1.0000   1.0000   1.0000   1.0000   1.0000   1.0000   1.0000
     1.0000   1.0000   1.0000   1.0000   1.0000   1.0000   1.0000   1.0000
     1.0000   1.0000   1.0000   1.0000   1.0000   1.0000   1.0000   1.0000
     1.0000   1.0000   1.0000   1.0000   1.0000   1.0000   1.0000   1.0000
     1.0000   1.0000   1.0000   1.0000   1.0000   1.0000   1.0000   1.0000
     1.0000   1.0000   1.0000   1.0000   1.0000   1.0000   1.0000   1.0000
     1.0000   1.0000   1.0000   1.0000   1.0000   1.0000   1.0000   1.0000
     1.0000   1.0000   1.0000   1.0000   1.0000   1.0000   1.0000   1.0000
     1.0000   1.0000   1.0000   1.0000   1.0000   1.0000   1.0000   1.0000
     1.0000   1.0000   1.0000   1.0000   1.0000   1.0000   1.0000   1.0000
     1.0000   1.0000   1.0000   1.0000   1.0000   1.0000   1.0000   1.0000
     1.0000   1.0000   0.0000   0.0000   0.0000   0.0000   0.0000   0.0000
     0.0000   0.0000   0.0000   0.0000   0.0000   0.0000   0.0000   0.0000
     0.0000   0.0000   0.0000   0.0000   0.0000   0.0000   0.0000   0.0000
     0.0000   0.0000   0.0000   0.0000   0.0000   0.0000   0.0000   0.0000
     0.0000   0.0000   0.0000   0.0000   0.0000   0.0000   0.0000   0.0000
     0.0000   0.0000   0.0000   0.0000   0.0000   0.0000   0.0000   0.0000
     0.0000   0.0000   0.0000   0.0000   0.0000   0.0000   0.0000   0.0000
     0.0000   0.0000   0.0000   0.0000   0.0000   0.0000   0.0000   0.0000
     0.0000   0.0000   0.0000   0.0000   0.0000   0.0000   0.0000   0.0000
     0.0000   0.0000   0.0000   0.0000   0.0000   0.0000   0.0000   0.0000
     0.0000   0.0000   0.0000   0.0000   0.0000   0.0000   0.0000   0.0000
     0.0000   0.0000   0.0000   0.0000   0.0000   0.0000   0.0000   0.0000
     0.0000   0.0000   0.0000   0.0000   0.0000   0.0000   0.0000   0.0000

          k = 0.0000 0.0000 0.8787 ( 23488 PWs)   bands (ev):

   -74.0149 -73.9996 -69.4454 -69.4302 -43.2671 -43.2519 -42.8559 -42.8407
   -42.3513 -42.3361 -38.6243 -38.6092 -38.2047 -38.1897 -37.8758 -37.8606
   -16.9760 -16.9759 -16.9682 -16.9681 -16.9672 -16.9671 -16.9648 -16.9647
   -16.9646 -16.9645 -16.9599 -16.9598 -16.9575 -16.9573 -16.9569 -16.9567
   -13.9985 -13.9984 -13.9910 -13.9909 -13.9900 -13.9899 -13.9873 -13.9872
   -13.9824 -13.9823 -13.9799 -13.9798 -13.9792 -13.9790 -13.9781 -13.9781
   -13.9780 -13.9778 -13.9715 -13.9713 -13.9706 -13.9705 -13.9704 -13.9704
    -5.5231  -5.5218  -5.4936  -5.4927  -5.3088  -5.3077  -5.2617  -5.2607
    -3.8750  -3.8719  -3.6789  -3.6753  -3.3891  -3.3881  -3.1435  -3.1419
    -1.4828  -1.4822  -1.1793  -1.1791  -0.7964  -0.7959  -0.5456  -0.5452
     3.5877   3.5975   3.9449   3.9545   4.2397   4.2539   4.2761   4.2884
     4.6609   4.6611   4.7893   4.8030   4.8040   4.8177   4.9356   4.9426
     5.1483   5.1497   5.3133   5.3135   5.5049   5.5123   5.6670   5.6694
     5.7377   5.7378   5.9536   5.9602   6.0668   6.0792   6.1831   6.1839
     6.3154   6.3162   6.3230   6.3238   6.3563   6.3572   6.5971   6.5983
     6.6720   6.6737   6.8010   6.8025   6.9472   6.9491   7.0833   7.0907
     7.1750   7.1819   7.2666   7.2745   7.5320   7.5359   7.6173   7.6196
     7.7228   7.7337   7.8232   7.8237   7.8446   7.8450   8.0184   8.0239
     8.1309   8.1315   8.6314   8.6339   8.6453   8.6472   8.8042   8.8175
     8.9241   8.9314   9.1014   9.1107   9.2852   9.2896   9.3928   9.3934
     9.4582   9.4596   9.5609   9.5623   9.7804   9.7822   9.8891   9.8980
     9.9001   9.9014  10.4319  10.4410  11.4614  11.4708  11.7363  11.7410
    11.7908  11.7964  12.5485  12.5569  12.7776  12.7891  12.9122  12.9232
    13.2806  13.2812  13.3098  13.3183  13.3598  13.3624  13.3861  13.3958
    13.5679  13.5689  13.7226  13.7254  13.7732  13.7756  13.8377  13.8380
    13.9755  13.9776  14.1396  14.1402  14.1509  14.1510  14.3119  14.3126
    14.3413  14.3420  14.6373  14.6385  14.7639  14.7652  14.8255  14.8263
    15.0604  15.0609  15.1826  15.1829  15.3779  15.3791  15.4487  15.4491
    15.4549  15.4558  15.6098  15.6106  15.6211  15.6220  15.7115  15.7138
    16.0649  16.0651  16.2595  16.2608  16.2944  16.2953  16.3016  16.3024

     occupation numbers 
     1.0000   1.0000   1.0000   1.0000   1.0000   1.0000   1.0000   1.0000
     1.0000   1.0000   1.0000   1.0000   1.0000   1.0000   1.0000   1.0000
     1.0000   1.0000   1.0000   1.0000   1.0000   1.0000   1.0000   1.0000
     1.0000   1.0000   1.0000   1.0000   1.0000   1.0000   1.0000   1.0000
     1.0000   1.0000   1.0000   1.0000   1.0000   1.0000   1.0000   1.0000
     1.0000   1.0000   1.0000   1.0000   1.0000   1.0000   1.0000   1.0000
     1.0000   1.0000   1.0000   1.0000   1.0000   1.0000   1.0000   1.0000
     1.0000   1.0000   1.0000   1.0000   1.0000   1.0000   1.0000   1.0000
     1.0000   1.0000   1.0000   1.0000   1.0000   1.0000   1.0000   1.0000
     1.0000   1.0000   1.0000   1.0000   1.0000   1.0000   1.0000   1.0000
     1.0000   1.0000   1.0000   1.0000   1.0000   1.0000   1.0000   1.0000
     1.0000   1.0000   1.0000   1.0000   1.0000   1.0000   1.0000   1.0000
     1.0000   1.0000   1.0000   1.0000   1.0000   1.0000   1.0000   1.0000
     1.0000   1.0000   1.0000   1.0000   1.0000   1.0000   1.0000   1.0000
     1.0000   1.0000   1.0000   1.0000   1.0000   1.0000   1.0000   1.0000
     1.0000   1.0000   1.0000   1.0000   1.0000   1.0000   1.0000   1.0000
     1.0000   1.0000   1.0000   1.0000   1.0000   1.0000   1.0000   1.0000
     1.0000   1.0000   0.0000   0.0000   0.0000   0.0000   0.0000   0.0000
     0.0000   0.0000   0.0000   0.0000   0.0000   0.0000   0.0000   0.0000
     0.0000   0.0000   0.0000   0.0000   0.0000   0.0000   0.0000   0.0000
     0.0000   0.0000   0.0000   0.0000   0.0000   0.0000   0.0000   0.0000
     0.0000   0.0000   0.0000   0.0000   0.0000   0.0000   0.0000   0.0000
     0.0000   0.0000   0.0000   0.0000   0.0000   0.0000   0.0000   0.0000
     0.0000   0.0000   0.0000   0.0000   0.0000   0.0000   0.0000   0.0000
     0.0000   0.0000   0.0000   0.0000   0.0000   0.0000   0.0000   0.0000
     0.0000   0.0000   0.0000   0.0000   0.0000   0.0000   0.0000   0.0000
     0.0000   0.0000   0.0000   0.0000   0.0000   0.0000   0.0000   0.0000
     0.0000   0.0000   0.0000   0.0000   0.0000   0.0000   0.0000   0.0000
     0.0000   0.0000   0.0000   0.0000   0.0000   0.0000   0.0000   0.0000
     0.0000   0.0000   0.0000   0.0000   0.0000   0.0000   0.0000   0.0000

     highest occupied, lowest unoccupied level (ev):     7.7361    7.7769

     Writing all to output data dir ./tmp/MnBi2Te4.save/
 
     init_run     :     20.24s CPU     23.45s WALL (       1 calls)
     electrons    : 536550.83s CPU 552369.39s WALL (       1 calls)

     Called by init_run:
     wfcinit      :      0.00s CPU      0.00s WALL (       1 calls)
     wfcinit:atom :      1.31s CPU      1.77s WALL (     512 calls)
     wfcinit:wfcr :  17884.52s CPU  18415.51s WALL (     512 calls)
     potinit      :     10.88s CPU     12.22s WALL (       1 calls)
     hinit0       :      4.57s CPU      5.87s WALL (       1 calls)

     Called by electrons:
     c_bands      : 536550.71s CPU 552368.75s WALL (       1 calls)
     v_of_rho     :      5.45s CPU      6.46s WALL (       1 calls)
     v_h          :      0.15s CPU      0.16s WALL (       1 calls)
     v_xc         :      5.30s CPU      6.30s WALL (       1 calls)
     newd         :      4.07s CPU      4.46s WALL (       1 calls)
     PAW_pot      :      4.41s CPU      4.57s WALL (       1 calls)

     Called by c_bands:
     init_us_2    :      1.51s CPU      1.63s WALL (     512 calls)
     init_us_2:cp :      1.50s CPU      1.63s WALL (     512 calls)
     cegterg      : 518570.32s CPU 533841.52s WALL (    1969 calls)

     Called by sum_band:

     Called by *egterg:
     cdiaghg      :   7785.40s CPU   8047.66s WALL (   34516 calls)
     cegterg:over :   4070.29s CPU   4245.30s WALL (   34004 calls)
     cegterg:upda :   2702.18s CPU   2770.86s WALL (   34004 calls)
     cegterg:last :   6758.92s CPU   6915.38s WALL (   14795 calls)
     cdiaghg:chol :    576.06s CPU    582.79s WALL (   34516 calls)
     cdiaghg:inve :    110.68s CPU    111.98s WALL (   34516 calls)
     cdiaghg:para :   2304.11s CPU   2460.99s WALL (   69032 calls)
     h_psi        : 511445.96s CPU 526527.38s WALL (   36485 calls)
     s_psi        :   3147.06s CPU   3177.85s WALL (   36485 calls)
     g_psi        :     32.18s CPU     32.92s WALL (   34004 calls)

     Called by h_psi:
     h_psi:calbec :   2796.67s CPU   3034.26s WALL (   36485 calls)
     vloc_psi     : 505783.09s CPU 520584.48s WALL (   36485 calls)
     add_vuspsi   :   2799.24s CPU   2836.44s WALL (   36485 calls)

     General routines
     calbec       :   2796.18s CPU   3033.87s WALL (   36485 calls)
     fft          :      3.61s CPU      3.88s WALL (      31 calls)
     ffts         :      0.09s CPU      0.11s WALL (       4 calls)
     fftw         : 291916.81s CPU 303022.84s WALL (14276232 calls)
     interpolate  :      0.44s CPU      0.48s WALL (       4 calls)
     davcio       :      0.21s CPU     36.63s WALL (    1024 calls)
 
     Parallel routines

     PAW routines
     PAW_pot      :      4.41s CPU      4.57s WALL (       1 calls)
 
     PWSCF        :   6d 5h 8m CPU   6d 9h36m WALL

 
   This run was terminated on:   3:29:18  25Jan2026            

=------------------------------------------------------------------------------=
   JOB DONE.
=------------------------------------------------------------------------------=
