
     Program BANDS v.7.2 starts on 16Jun2025 at  2: 1:42 

     This program is part of the open-source Quantum ESPRESSO suite
     for quantum simulation of materials; please cite
         "P. Giannozzi et al., J. Phys.:Condens. Matter 21 395502 (2009);
         "P. Giannozzi et al., J. Phys.:Condens. Matter 29 465901 (2017);
         "P. Giannozzi et al., J. Chem. Phys. 152 154105 (2020);
          URL http://www.quantum-espresso.org", 
     in publications or presentations arising from this work. More details at
     http://www.quantum-espresso.org/quote

     Parallel version (MPI), running on    64 processors

     MPI processes distributed on     1 nodes
     R & G space division:  proc/nbgrp/npool/nimage =      64
     152189 MiB available memory on the printing compute node when the environment starts
 

     Reading xml data from directory:

     ./tmp/MnBi2Te4.save/
     file Mn.pbe-spn-kjpaw_psl.0.3.1.UPF: wavefunction(s)  3P 3D renormalized
     file Mn.pbe-spn-kjpaw_psl.0.3.1.UPF: wavefunction(s)  3P 3D renormalized
     file Bi.pbe-dn-kjpaw_psl.1.0.0.UPF: wavefunction(s)  6P 5D renormalized
     file Te.pbe-n-kjpaw_psl.1.0.0.UPF: wavefunction(s)  5S 5P renormalized

     IMPORTANT: XC functional enforced from input :
     Exchange-correlation= PBE
                           (   1   4   3   4   0   0   0)
     Any further DFT definition will be discarded
     Please, verify this is what you really want

 
     Parallelization info
     --------------------
     sticks:   dense  smooth     PW     G-vecs:    dense   smooth      PW
     Min         126     126     39                 2936     2936     509
     Max         127     127     40                 2938     2938     510
     Sum        8079    8079   2519               187971   187971   32619
 
     Using Slab Decomposition
 

     Check: negative core charge=   -0.000015
     Reading collected, re-writing distributed wavefunctions
     high-symmetry point:  0.0000 0.0000 0.0000   x coordinate   0.0000
     high-symmetry point:  6.3025 3.6540-0.5000   x coordinate   7.3023
     high-symmetry point:  3.1314 5.4696-0.5000   x coordinate  10.9564
     high-symmetry point:  0.0000 0.0000 0.0000   x coordinate  17.2787

     Plottable bands (eV) written to file MnBi2Te4.bandsx.out.gnu
     Bands written to file MnBi2Te4.bandsx.out

 **************************************************************************

                    xk=(   0.00000,   0.00000,   0.00000  )

     point group C_i (-1)   
     there are  2 classes
     the character table:

       E     i    
A_g    1.00  1.00
A_u    1.00 -1.00

     the symmetry operations in each class and the name of the first element:

     E        1
                                                                 
     i        2
                                                                 

     Band symmetry, C_i (-1)    point group:

     e(  1 -  1) =    -73.97300  eV     1   --> A_g            
     e(  2 -  2) =    -69.34982  eV     1   --> A_g            
     e(  3 -  3) =    -42.72686  eV     1   --> A_u            
     e(  4 -  4) =    -42.72170  eV     1   --> A_u            
     e(  5 -  5) =    -42.72049  eV     1   --> A_u            
     e(  6 -  6) =    -38.19113  eV     1   --> A_u            
     e(  7 -  7) =    -38.18683  eV     1   --> A_u            
     e(  8 -  8) =    -38.17223  eV     1   --> A_u            
     e(  9 -  9) =    -15.57337  eV     1   --> A_g            
     e( 10 - 10) =    -15.57323  eV     1   --> A_u            
     e( 11 - 11) =    -15.57313  eV     1   --> A_g            
     e( 12 - 12) =    -15.57299  eV     1   --> A_u            
     e( 13 - 13) =    -15.56253  eV     1   --> A_g            
     e( 14 - 15) =    -15.56240  eV     2   --> A_g            
     e( 14 - 15) =    -15.56240  eV     2   --> A_u            
     e( 16 - 16) =    -15.56201  eV     1   --> A_u            
     e( 17 - 17) =    -15.56110  eV     1   --> A_g            
     e( 18 - 18) =    -15.56097  eV     1   --> A_u            
     e( 19 - 19) =    -15.55778  eV     1   --> A_g            
     e( 20 - 20) =    -15.55762  eV     1   --> A_u            
     e( 21 - 21) =    -15.55723  eV     1   --> A_g            
     e( 22 - 22) =    -15.55707  eV     1   --> A_u            
     e( 23 - 23) =    -15.55069  eV     1   --> A_g            
     e( 24 - 24) =    -15.55035  eV     1   --> A_u            
     e( 25 - 25) =    -15.54366  eV     1   --> A_g            
     e( 26 - 26) =    -15.54350  eV     1   --> A_u            
     e( 27 - 27) =    -15.54313  eV     1   --> A_g            
     e( 28 - 28) =    -15.54298  eV     1   --> A_u            
     e( 29 - 29) =     -5.60990  eV     1   --> A_g            
     e( 30 - 30) =     -5.58039  eV     1   --> A_u            
     e( 31 - 31) =     -5.41180  eV     1   --> A_g            
     e( 32 - 32) =     -5.36739  eV     1   --> A_u            
     e( 33 - 33) =     -3.84969  eV     1   --> A_g            
     e( 34 - 34) =     -3.63094  eV     1   --> A_g            
     e( 35 - 35) =     -3.38629  eV     1   --> A_u            
     e( 36 - 36) =     -3.10478  eV     1   --> A_u            
     e( 37 - 37) =     -1.58301  eV     1   --> A_g            
     e( 38 - 38) =     -1.24457  eV     1   --> A_u            
     e( 39 - 39) =     -0.89812  eV     1   --> A_g            
     e( 40 - 40) =     -0.62773  eV     1   --> A_u            
     e( 41 - 41) =      3.69410  eV     1   --> A_g            
     e( 42 - 42) =      4.22017  eV     1   --> A_g            
     e( 43 - 43) =      4.25208  eV     1   --> A_g            
     e( 44 - 44) =      4.25261  eV     1   --> A_g            
     e( 45 - 45) =      4.85431  eV     1   --> A_g            
     e( 46 - 46) =      4.85631  eV     1   --> A_g            
     e( 47 - 47) =      5.07831  eV     1   --> A_u            
     e( 48 - 48) =      5.17546  eV     1   --> A_g            
     e( 49 - 49) =      5.56699  eV     1   --> A_g            
     e( 50 - 50) =      5.83627  eV     1   --> A_g            
     e( 51 - 51) =      5.83766  eV     1   --> A_g            
     e( 52 - 52) =      5.93278  eV     1   --> A_u            
     e( 53 - 53) =      5.93322  eV     1   --> A_u            
     e( 54 - 54) =      6.01707  eV     1   --> A_g            
     e( 55 - 55) =      6.01838  eV     1   --> A_g            
     e( 56 - 56) =      6.14851  eV     1   --> A_u            
     e( 57 - 57) =      6.14885  eV     1   --> A_u            
     e( 58 - 58) =      6.21851  eV     1   --> A_u            
     e( 59 - 59) =      6.31162  eV     1   --> A_g            
     e( 60 - 60) =      6.31252  eV     1   --> A_g            
     e( 61 - 61) =      6.57367  eV     1   --> A_u            
     e( 62 - 62) =      6.91024  eV     1   --> A_u            
     e( 63 - 63) =      6.91094  eV     1   --> A_u            
     e( 64 - 64) =      7.03303  eV     1   --> A_u            
     e( 65 - 65) =      7.03376  eV     1   --> A_u            
     e( 66 - 66) =      7.47113  eV     1   --> A_g            
     e( 67 - 67) =      7.48155  eV     1   --> A_g            
     e( 68 - 68) =      7.48169  eV     1   --> A_g            
     e( 69 - 69) =      7.74026  eV     1   --> A_u            
     e( 70 - 70) =      8.31660  eV     1   --> A_g            
     e( 71 - 71) =      8.57814  eV     1   --> A_g            
     e( 72 - 72) =      8.57935  eV     1   --> A_g            
     e( 73 - 73) =      8.59365  eV     1   --> A_g            
     e( 74 - 74) =      8.84848  eV     1   --> A_g            
     e( 75 - 75) =      8.85257  eV     1   --> A_g            
     e( 76 - 76) =      8.87160  eV     1   --> A_u            
     e( 77 - 77) =      8.87200  eV     1   --> A_u            
     e( 78 - 78) =      8.91594  eV     1   --> A_g            
     e( 79 - 79) =      8.98440  eV     1   --> A_u            
     e( 80 - 80) =      9.14641  eV     1   --> A_u            
     e( 81 - 81) =      9.27113  eV     1   --> A_u            
     e( 82 - 82) =      9.27179  eV     1   --> A_u            
     e( 83 - 83) =      9.31120  eV     1   --> A_g            
     e( 84 - 84) =      9.31177  eV     1   --> A_g            
     e( 85 - 85) =     10.17584  eV     1   --> A_g            
     e( 86 - 86) =     10.17786  eV     1   --> A_g            
     e( 87 - 87) =     11.46700  eV     1   --> A_u            
     e( 88 - 88) =     11.75769  eV     1   --> A_g            
     e( 89 - 89) =     11.78288  eV     1   --> A_u            
     e( 90 - 90) =     12.56628  eV     1   --> A_g            
     e( 91 - 91) =     12.86163  eV     1   --> A_u            
     e( 92 - 92) =     12.86415  eV     1   --> A_u            
     e( 93 - 93) =     13.28148  eV     1   --> A_g            
     e( 94 - 94) =     13.33972  eV     1   --> A_g            
     e( 95 - 95) =     13.38541  eV     1   --> A_u            
     e( 96 - 96) =     13.38845  eV     1   --> A_u            
     e( 97 - 97) =     13.55695  eV     1   --> A_u            
     e( 98 - 98) =     13.71057  eV     1   --> A_g            
     e( 99 - 99) =     13.71137  eV     1   --> A_g            
     e(100 -100) =     13.83325  eV     1   --> A_u            
     e(101 -101) =     13.93147  eV     1   --> A_g            
     e(102 -102) =     14.17580  eV     1   --> A_u            
     e(103 -103) =     14.17768  eV     1   --> A_u            
     e(104 -104) =     14.23261  eV     1   --> A_g            
     e(105 -105) =     14.23323  eV     1   --> A_g            
     e(106 -106) =     14.66085  eV     1   --> A_u            
     e(107 -107) =     14.78231  eV     1   --> A_u            
     e(108 -108) =     14.78302  eV     1   --> A_u            
     e(109 -109) =     15.04814  eV     1   --> A_u            
     e(110 -110) =     15.17798  eV     1   --> A_g            
     e(111 -111) =     15.41636  eV     1   --> A_g            
     e(112 -112) =     15.41783  eV     1   --> A_g            
     e(113 -113) =     15.42904  eV     1   --> A_g            
     e(114 -114) =     15.56337  eV     1   --> A_g            
     e(115 -115) =     15.56527  eV     1   --> A_g            
     e(116 -116) =     15.82459  eV     1   --> A_u            
     e(117 -117) =     16.07851  eV     1   --> A_u            
     e(118 -118) =     16.32729  eV     1   --> A_u            
     e(119 -119) =     16.32804  eV     1   --> A_u            
     e(120 -120) =     16.38847  eV     1   --> A_u            
     e(121 -121) =     16.38935  eV     1   --> A_u            
     e(122 -122) =     16.59316  eV     1   --> A_g            
     e(123 -123) =     16.59390  eV     1   --> A_g            
     e(124 -124) =     16.66207  eV     1   --> A_g            
     e(125 -125) =     16.90015  eV     1   --> A_g            
     e(126 -126) =     16.92273  eV     1   --> A_g            
     e(127 -127) =     16.92402  eV     1   --> A_g            
     e(128 -128) =     17.79130  eV     1   --> A_u            
     e(129 -129) =     18.07232  eV     1   --> A_u            
     e(130 -130) =     18.07265  eV     1   --> A_u            
     e(131 -131) =     18.21413  eV     1   --> A_g            
     e(132 -132) =     18.33381  eV     1   --> A_g            
     e(133 -133) =     18.72263  eV     1   --> A_g            
     e(134 -134) =     18.72409  eV     1   --> A_g            
     e(135 -135) =     19.02327  eV     1   --> A_u            
     e(136 -136) =     19.02527  eV     1   --> A_u            
     e(137 -137) =     19.10013  eV     1   --> A_g            
     e(138 -138) =     19.10032  eV     1   --> A_g            
     e(139 -139) =     19.21660  eV     1   --> A_g            
     e(140 -140) =     19.31420  eV     1   --> A_u            
     e(141 -141) =     19.57710  eV     1   --> A_u            
     e(142 -142) =     20.13982  eV     1   --> A_g            
     e(143 -143) =     21.00765  eV     1   --> A_g            
     e(144 -144) =     21.00825  eV     1   --> A_g            
     e(145 -145) =     21.15191  eV     1   --> A_u            
     e(146 -146) =     21.17995  eV     1   --> A_u            
     e(147 -147) =     21.18036  eV     1   --> A_u            
     e(148 -148) =     21.28705  eV     1   --> A_u            
     e(149 -149) =     21.28873  eV     1   --> A_u            
     e(150 -150) =     21.34528  eV     1   --> A_u            
     e(151 -151) =     21.63726  eV     1   --> A_u            
     e(152 -152) =     21.71701  eV     1   --> A_g            
     e(153 -153) =     21.71808  eV     1   --> A_g            
     e(154 -154) =     21.86284  eV     1   --> A_g            
     e(155 -155) =     22.96991  eV     1   --> A_g            
     e(156 -156) =     23.63420  eV     1   --> A_g            
     e(157 -157) =     23.63464  eV     1   --> A_g            
     e(158 -158) =     23.87160  eV     1   --> A_u            
     e(159 -159) =     23.87321  eV     1   --> A_u            
     e(160 -160) =     24.02510  eV     1   --> A_g            
     e(161 -161) =     24.05502  eV     1   --> A_u            
     e(162 -162) =     24.05542  eV     1   --> A_u            
     e(163 -163) =     24.16660  eV     1   --> A_u            
     e(164 -164) =     25.04973  eV     1   --> A_g            
     e(165 -165) =     25.05059  eV     1   --> A_g            
     e(166 -166) =     25.61764  eV     1   --> A_u            
     e(167 -167) =     25.80643  eV     1   --> A_g            
     e(168 -168) =     26.16796  eV     1   --> A_u            
     e(169 -169) =     26.54256  eV     1   --> A_u            
     e(170 -170) =     26.54329  eV     1   --> A_u            
     e(171 -171) =     26.79334  eV     1   --> A_g            
     e(172 -172) =     27.25453  eV     1   --> A_u            
     e(173 -173) =     27.45959  eV     1   --> A_g            
     e(174 -174) =     27.46103  eV     1   --> A_g            
     e(175 -175) =     27.49615  eV     1   --> A_g            
     e(176 -176) =     27.49650  eV     1   --> A_g            
     e(177 -177) =     27.78818  eV     1   --> A_u            
     e(178 -178) =     27.78926  eV     1   --> A_u            
     e(179 -179) =     27.96895  eV     1   --> A_g            
     e(180 -180) =     28.42525  eV     1   --> A_u            
     e(181 -181) =     28.47103  eV     1   --> A_g            
     e(182 -182) =     28.56854  eV     1   --> A_u            
     e(183 -183) =     28.62317  eV     1   --> A_g            
     e(184 -184) =     29.05581  eV     1   --> A_g            
     e(185 -185) =     29.37673  eV     1   --> A_u            
     e(186 -186) =     29.45913  eV     1   --> A_u            
     e(187 -187) =     29.46042  eV     1   --> A_u            
     e(188 -188) =     29.55088  eV     1   --> A_u            
     e(189 -189) =     29.69898  eV     1   --> A_u            
     e(190 -190) =     29.70081  eV     1   --> A_u            
     e(191 -191) =     29.70447  eV     1   --> A_g            
     e(192 -192) =     29.70482  eV     1   --> A_g            
     e(193 -193) =     29.97232  eV     1   --> A_g            
     e(194 -194) =     29.97281  eV     1   --> A_g            
     e(195 -195) =     30.24304  eV     1   --> A_u            
     e(196 -196) =     30.24512  eV     1   --> A_u            
     e(197 -197) =     30.45899  eV     1   --> A_u            
     e(198 -198) =     30.52857  eV     1   --> A_g            
     e(199 -199) =     30.69906  eV     1   --> A_u            
     e(200 -200) =     30.77113  eV     1   --> A_g            

 **************************************************************************

 **************************************************************************

                    xk=(   0.12605,   0.07308,  -0.01000  )

     point group C_1 (1)    
     there are  1 classes
     the character table:

       E    
A      1.00

     the symmetry operations in each class and the name of the first element:

     E        1
                                                                 

     Band symmetry, C_1 (1)     point group:

     e(  1 -  1) =    -73.97300  eV     1   --> A              
     e(  2 -  2) =    -69.34982  eV     1   --> A              
     e(  3 -  3) =    -42.72686  eV     1   --> A              
     e(  4 -  4) =    -42.72170  eV     1   --> A              
     e(  5 -  5) =    -42.72049  eV     1   --> A              
     e(  6 -  6) =    -38.19113  eV     1   --> A              
     e(  7 -  7) =    -38.18683  eV     1   --> A              
     e(  8 -  8) =    -38.17223  eV     1   --> A              
     e(  9 - 11) =    -15.57328  eV     3   -->   3 A              
     e( 12 - 12) =    -15.57301  eV     1   --> A              
     e( 13 - 13) =    -15.56252  eV     1   --> A              
     e( 14 - 14) =    -15.56242  eV     1   --> A              
     e( 15 - 15) =    -15.56228  eV     1   --> A              
     e( 16 - 16) =    -15.56198  eV     1   --> A              
     e( 17 - 18) =    -15.56102  eV     2   -->   2 A              
     e( 19 - 19) =    -15.55773  eV     1   --> A              
     e( 20 - 20) =    -15.55762  eV     1   --> A              
     e( 21 - 22) =    -15.55720  eV     2   -->   2 A              
     e( 23 - 23) =    -15.55063  eV     1   --> A              
     e( 24 - 24) =    -15.55032  eV     1   --> A              
     e( 25 - 25) =    -15.54361  eV     1   --> A              
     e( 26 - 26) =    -15.54350  eV     1   --> A              
     e( 27 - 28) =    -15.54311  eV     2   -->   2 A              
     e( 29 - 29) =     -5.60638  eV     1   --> A              
     e( 30 - 30) =     -5.57689  eV     1   --> A              
     e( 31 - 31) =     -5.40836  eV     1   --> A              
     e( 32 - 32) =     -5.36398  eV     1   --> A              
     e( 33 - 33) =     -3.84710  eV     1   --> A              
     e( 34 - 34) =     -3.62855  eV     1   --> A              
     e( 35 - 35) =     -3.38432  eV     1   --> A              
     e( 36 - 36) =     -3.10316  eV     1   --> A              
     e( 37 - 37) =     -1.58384  eV     1   --> A              
     e( 38 - 38) =     -1.24675  eV     1   --> A              
     e( 39 - 39) =     -0.90114  eV     1   --> A              
     e( 40 - 40) =     -0.63238  eV     1   --> A              
     e( 41 - 41) =      3.69391  eV     1   --> A              
     e( 42 - 42) =      4.21713  eV     1   --> A              
     e( 43 - 43) =      4.24935  eV     1   --> A              
     e( 44 - 44) =      4.25321  eV     1   --> A              
     e( 45 - 45) =      4.85291  eV     1   --> A              
     e( 46 - 46) =      4.85528  eV     1   --> A              
     e( 47 - 47) =      5.07092  eV     1   --> A              
     e( 48 - 48) =      5.16869  eV     1   --> A              
     e( 49 - 49) =      5.51013  eV     1   --> A              
     e( 50 - 50) =      5.82529  eV     1   --> A              
     e( 51 - 51) =      5.82713  eV     1   --> A              
     e( 52 - 52) =      5.91905  eV     1   --> A              
     e( 53 - 53) =      5.92868  eV     1   --> A              
     e( 54 - 54) =      5.96610  eV     1   --> A              
     e( 55 - 55) =      5.99987  eV     1   --> A              
     e( 56 - 56) =      6.15106  eV     1   --> A              
     e( 57 - 57) =      6.16538  eV     1   --> A              
     e( 58 - 58) =      6.20240  eV     1   --> A              
     e( 59 - 59) =      6.30570  eV     1   --> A              
     e( 60 - 60) =      6.32054  eV     1   --> A              
     e( 61 - 61) =      6.67081  eV     1   --> A              
     e( 62 - 62) =      6.86732  eV     1   --> A              
     e( 63 - 63) =      6.91560  eV     1   --> A              
     e( 64 - 64) =      6.98114  eV     1   --> A              
     e( 65 - 65) =      7.02335  eV     1   --> A              
     e( 66 - 66) =      7.42568  eV     1   --> A              
     e( 67 - 67) =      7.48398  eV     1   --> A              
     e( 68 - 68) =      7.50041  eV     1   --> A              
     e( 69 - 69) =      7.74151  eV     1   --> A              
     e( 70 - 70) =      8.35545  eV     1   --> A              
     e( 71 - 71) =      8.57393  eV     1   --> A              
     e( 72 - 72) =      8.57875  eV     1   --> A              
     e( 73 - 73) =      8.58908  eV     1   --> A              
     e( 74 - 74) =      8.83681  eV     1   --> A              
     e( 75 - 75) =      8.84324  eV     1   --> A              
     e( 76 - 76) =      8.90522  eV     1   --> A              
     e( 77 - 77) =      8.91572  eV     1   --> A              
     e( 78 - 78) =      8.91982  eV     1   --> A              
     e( 79 - 79) =      9.03512  eV     1   --> A              
     e( 80 - 80) =      9.13429  eV     1   --> A              
     e( 81 - 81) =      9.23012  eV     1   --> A              
     e( 82 - 82) =      9.23134  eV     1   --> A              
     e( 83 - 83) =      9.35385  eV     1   --> A              
     e( 84 - 84) =      9.36038  eV     1   --> A              
     e( 85 - 85) =     10.17161  eV     1   --> A              
     e( 86 - 86) =     10.17774  eV     1   --> A              
     e( 87 - 87) =     11.48190  eV     1   --> A              
     e( 88 - 88) =     11.76569  eV     1   --> A              
     e( 89 - 89) =     11.79617  eV     1   --> A              
     e( 90 - 90) =     12.58207  eV     1   --> A              
     e( 91 - 91) =     12.83425  eV     1   --> A              
     e( 92 - 92) =     12.87281  eV     1   --> A              
     e( 93 - 93) =     13.20940  eV     1   --> A              
     e( 94 - 94) =     13.36108  eV     1   --> A              
     e( 95 - 95) =     13.39707  eV     1   --> A              
     e( 96 - 96) =     13.44172  eV     1   --> A              
     e( 97 - 97) =     13.52141  eV     1   --> A              
     e( 98 - 98) =     13.67157  eV     1   --> A              
     e( 99 - 99) =     13.71856  eV     1   --> A              
     e(100 -100) =     13.85083  eV     1   --> A              
     e(101 -101) =     13.94955  eV     1   --> A              
     e(102 -102) =     14.09908  eV     1   --> A              
     e(103 -103) =     14.12033  eV     1   --> A              
     e(104 -104) =     14.27135  eV     1   --> A              
     e(105 -105) =     14.29411  eV     1   --> A              
     e(106 -106) =     14.65274  eV     1   --> A              
     e(107 -107) =     14.76396  eV     1   --> A              
     e(108 -108) =     14.77290  eV     1   --> A              
     e(109 -109) =     15.09340  eV     1   --> A              
     e(110 -110) =     15.19966  eV     1   --> A              
     e(111 -111) =     15.43187  eV     1   --> A              
     e(112 -112) =     15.44979  eV     1   --> A              
     e(113 -113) =     15.45588  eV     1   --> A              
     e(114 -114) =     15.58457  eV     1   --> A              
     e(115 -115) =     15.61846  eV     1   --> A              
     e(116 -116) =     15.80527  eV     1   --> A              
     e(117 -117) =     16.10914  eV     1   --> A              
     e(118 -118) =     16.28744  eV     1   --> A              
     e(119 -119) =     16.29046  eV     1   --> A              
     e(120 -120) =     16.30362  eV     1   --> A              
     e(121 -121) =     16.32110  eV     1   --> A              
     e(122 -122) =     16.64187  eV     1   --> A              
     e(123 -123) =     16.67434  eV     1   --> A              
     e(124 -124) =     16.67835  eV     1   --> A              
     e(125 -125) =     16.96141  eV     1   --> A              
     e(126 -126) =     16.96625  eV     1   --> A              
     e(127 -127) =     16.99809  eV     1   --> A              
     e(128 -128) =     17.79908  eV     1   --> A              
     e(129 -129) =     18.01650  eV     1   --> A              
     e(130 -130) =     18.04630  eV     1   --> A              
     e(131 -131) =     18.28254  eV     1   --> A              
     e(132 -132) =     18.36680  eV     1   --> A              
     e(133 -133) =     18.57992  eV     1   --> A              
     e(134 -134) =     18.64440  eV     1   --> A              
     e(135 -135) =     18.98837  eV     1   --> A              
     e(136 -136) =     19.05377  eV     1   --> A              
     e(137 -137) =     19.09173  eV     1   --> A              
     e(138 -138) =     19.15205  eV     1   --> A              
     e(139 -139) =     19.30411  eV     1   --> A              
     e(140 -140) =     19.41663  eV     1   --> A              
     e(141 -141) =     19.64091  eV     1   --> A              
     e(142 -142) =     20.15767  eV     1   --> A              
     e(143 -143) =     20.87142  eV     1   --> A              
     e(144 -144) =     20.90595  eV     1   --> A              
     e(145 -145) =     21.09069  eV     1   --> A              
     e(146 -146) =     21.20417  eV     1   --> A              
     e(147 -147) =     21.23233  eV     1   --> A              
     e(148 -148) =     21.24546  eV     1   --> A              
     e(149 -149) =     21.29350  eV     1   --> A              
     e(150 -150) =     21.31979  eV     1   --> A              
     e(151 -151) =     21.69202  eV     1   --> A              
     e(152 -152) =     21.77945  eV     1   --> A              
     e(153 -153) =     21.90079  eV     1   --> A              
     e(154 -154) =     21.92434  eV     1   --> A              
     e(155 -155) =     22.93960  eV     1   --> A              
     e(156 -156) =     23.54395  eV     1   --> A              
     e(157 -157) =     23.56591  eV     1   --> A              
     e(158 -158) =     23.83624  eV     1   --> A              
     e(159 -159) =     23.85347  eV     1   --> A              
     e(160 -160) =     24.00518  eV     1   --> A              
     e(161 -161) =     24.12945  eV     1   --> A              
     e(162 -162) =     24.16186  eV     1   --> A              
     e(163 -163) =     24.21516  eV     1   --> A              
     e(164 -164) =     25.01823  eV     1   --> A              
     e(165 -165) =     25.07873  eV     1   --> A              
     e(166 -166) =     25.64472  eV     1   --> A              
     e(167 -167) =     25.81715  eV     1   --> A              
     e(168 -168) =     26.23690  eV     1   --> A              
     e(169 -169) =     26.46854  eV     1   --> A              
     e(170 -170) =     26.50979  eV     1   --> A              
     e(171 -171) =     26.82250  eV     1   --> A              
     e(172 -172) =     27.11785  eV     1   --> A              
     e(173 -173) =     27.38213  eV     1   --> A              
     e(174 -174) =     27.42116  eV     1   --> A              
     e(175 -175) =     27.50003  eV     1   --> A              
     e(176 -176) =     27.62254  eV     1   --> A              
     e(177 -177) =     27.85653  eV     1   --> A              
     e(178 -178) =     27.85919  eV     1   --> A              
     e(179 -179) =     28.00598  eV     1   --> A              
     e(180 -180) =     28.37204  eV     1   --> A              
     e(181 -181) =     28.41677  eV     1   --> A              
     e(182 -182) =     28.51797  eV     1   --> A              
     e(183 -183) =     28.57320  eV     1   --> A              
     e(184 -184) =     29.05938  eV     1   --> A              
     e(185 -185) =     29.38152  eV     1   --> A              
     e(186 -186) =     29.39208  eV     1   --> A              
     e(187 -187) =     29.43329  eV     1   --> A              
     e(188 -188) =     29.55607  eV     1   --> A              
     e(189 -189) =     29.58518  eV     1   --> A              
     e(190 -190) =     29.64033  eV     1   --> A              
     e(191 -191) =     29.65306  eV     1   --> A              
     e(192 -192) =     29.67906  eV     1   --> A              
     e(193 -193) =     29.85575  eV     1   --> A              
     e(194 -194) =     29.91151  eV     1   --> A              
     e(195 -195) =     30.11060  eV     1   --> A              
     e(196 -196) =     30.18028  eV     1   --> A              
     e(197 -197) =     30.34452  eV     1   --> A              
     e(198 -198) =     30.58953  eV     1   --> A              
     e(199 -199) =     30.59824  eV     1   --> A              
     e(200 -200) =     30.67819  eV     1   --> A              

 **************************************************************************

 **************************************************************************

                    xk=(   0.25210,   0.14616,  -0.02000  )

     Band symmetry, C_1 (1)     point group:

     e(  1 -  1) =    -73.97300  eV     1   --> A              
     e(  2 -  2) =    -69.34982  eV     1   --> A              
     e(  3 -  3) =    -42.72686  eV     1   --> A              
     e(  4 -  4) =    -42.72170  eV     1   --> A              
     e(  5 -  5) =    -42.72049  eV     1   --> A              
     e(  6 -  6) =    -38.19114  eV     1   --> A              
     e(  7 -  7) =    -38.18683  eV     1   --> A              
     e(  8 -  8) =    -38.17223  eV     1   --> A              
     e(  9 - 12) =    -15.57324  eV     4   -->   4 A              
     e( 13 - 14) =    -15.56262  eV     2   -->   2 A              
     e( 15 - 15) =    -15.56213  eV     1   --> A              
     e( 16 - 16) =    -15.56189  eV     1   --> A              
     e( 17 - 18) =    -15.56086  eV     2   -->   2 A              
     e( 19 - 20) =    -15.55771  eV     2   -->   2 A              
     e( 21 - 22) =    -15.55726  eV     2   -->   2 A              
     e( 23 - 23) =    -15.55047  eV     1   --> A              
     e( 24 - 24) =    -15.55022  eV     1   --> A              
     e( 25 - 26) =    -15.54358  eV     2   -->   2 A              
     e( 27 - 28) =    -15.54315  eV     2   -->   2 A              
     e( 29 - 29) =     -5.59581  eV     1   --> A              
     e( 30 - 30) =     -5.56638  eV     1   --> A              
     e( 31 - 31) =     -5.39803  eV     1   --> A              
     e( 32 - 32) =     -5.35374  eV     1   --> A              
     e( 33 - 33) =     -3.83937  eV     1   --> A              
     e( 34 - 34) =     -3.62141  eV     1   --> A              
     e( 35 - 35) =     -3.37843  eV     1   --> A              
     e( 36 - 36) =     -3.09833  eV     1   --> A              
     e( 37 - 37) =     -1.58639  eV     1   --> A              
     e( 38 - 38) =     -1.25335  eV     1   --> A              
     e( 39 - 39) =     -0.91029  eV     1   --> A              
     e( 40 - 40) =     -0.64633  eV     1   --> A              
     e( 41 - 41) =      3.69308  eV     1   --> A              
     e( 42 - 42) =      4.20801  eV     1   --> A              
     e( 43 - 43) =      4.24119  eV     1   --> A              
     e( 44 - 44) =      4.25504  eV     1   --> A              
     e( 45 - 45) =      4.84837  eV     1   --> A              
     e( 46 - 46) =      4.85220  eV     1   --> A              
     e( 47 - 47) =      5.04690  eV     1   --> A              
     e( 48 - 48) =      5.14632  eV     1   --> A              
     e( 49 - 49) =      5.38229  eV     1   --> A              
     e( 50 - 50) =      5.77313  eV     1   --> A              
     e( 51 - 51) =      5.80047  eV     1   --> A              
     e( 52 - 52) =      5.82480  eV     1   --> A              
     e( 53 - 53) =      5.90547  eV     1   --> A              
     e( 54 - 54) =      5.96819  eV     1   --> A              
     e( 55 - 55) =      5.97257  eV     1   --> A              
     e( 56 - 56) =      5.99327  eV     1   --> A              
     e( 57 - 57) =      6.14000  eV     1   --> A              
     e( 58 - 58) =      6.28392  eV     1   --> A              
     e( 59 - 59) =      6.29566  eV     1   --> A              
     e( 60 - 60) =      6.43884  eV     1   --> A              
     e( 61 - 61) =      6.69585  eV     1   --> A              
     e( 62 - 62) =      6.85121  eV     1   --> A              
     e( 63 - 63) =      6.90100  eV     1   --> A              
     e( 64 - 64) =      6.92367  eV     1   --> A              
     e( 65 - 65) =      7.00140  eV     1   --> A              
     e( 66 - 66) =      7.30117  eV     1   --> A              
     e( 67 - 67) =      7.48821  eV     1   --> A              
     e( 68 - 68) =      7.53330  eV     1   --> A              
     e( 69 - 69) =      7.71410  eV     1   --> A              
     e( 70 - 70) =      8.43616  eV     1   --> A              
     e( 71 - 71) =      8.58552  eV     1   --> A              
     e( 72 - 72) =      8.58743  eV     1   --> A              
     e( 73 - 73) =      8.62081  eV     1   --> A              
     e( 74 - 74) =      8.82762  eV     1   --> A              
     e( 75 - 75) =      8.84222  eV     1   --> A              
     e( 76 - 76) =      8.92112  eV     1   --> A              
     e( 77 - 77) =      8.97242  eV     1   --> A              
     e( 78 - 78) =      8.97840  eV     1   --> A              
     e( 79 - 79) =      9.08778  eV     1   --> A              
     e( 80 - 80) =      9.16153  eV     1   --> A              
     e( 81 - 81) =      9.18389  eV     1   --> A              
     e( 82 - 82) =      9.23226  eV     1   --> A              
     e( 83 - 83) =      9.40963  eV     1   --> A              
     e( 84 - 84) =      9.41387  eV     1   --> A              
     e( 85 - 85) =     10.16080  eV     1   --> A              
     e( 86 - 86) =     10.18134  eV     1   --> A              
     e( 87 - 87) =     11.52427  eV     1   --> A              
     e( 88 - 88) =     11.78301  eV     1   --> A              
     e( 89 - 89) =     11.83385  eV     1   --> A              
     e( 90 - 90) =     12.62229  eV     1   --> A              
     e( 91 - 91) =     12.78168  eV     1   --> A              
     e( 92 - 92) =     12.89892  eV     1   --> A              
     e( 93 - 93) =     13.10202  eV     1   --> A              
     e( 94 - 94) =     13.40281  eV     1   --> A              
     e( 95 - 95) =     13.42628  eV     1   --> A              
     e( 96 - 96) =     13.42872  eV     1   --> A              
     e( 97 - 97) =     13.48999  eV     1   --> A              
     e( 98 - 98) =     13.58394  eV     1   --> A              
     e( 99 - 99) =     13.74007  eV     1   --> A              
     e(100 -100) =     13.87505  eV     1   --> A              
     e(101 -101) =     13.95884  eV     1   --> A              
     e(102 -102) =     14.03136  eV     1   --> A              
     e(103 -103) =     14.04984  eV     1   --> A              
     e(104 -104) =     14.29947  eV     1   --> A              
     e(105 -105) =     14.37858  eV     1   --> A              
     e(106 -106) =     14.63003  eV     1   --> A              
     e(107 -107) =     14.71918  eV     1   --> A              
     e(108 -108) =     14.76262  eV     1   --> A              
     e(109 -109) =     15.20764  eV     1   --> A              
     e(110 -110) =     15.25616  eV     1   --> A              
     e(111 -111) =     15.44923  eV     1   --> A              
     e(112 -112) =     15.50988  eV     1   --> A              
     e(113 -113) =     15.53410  eV     1   --> A              
     e(114 -114) =     15.64694  eV     1   --> A              
     e(115 -115) =     15.74465  eV     1   --> A              
     e(116 -116) =     15.79856  eV     1   --> A              
     e(117 -117) =     16.16370  eV     1   --> A              
     e(118 -118) =     16.20153  eV     1   --> A              
     e(119 -119) =     16.20992  eV     1   --> A              
     e(120 -120) =     16.22932  eV     1   --> A              
     e(121 -121) =     16.25085  eV     1   --> A              
     e(122 -122) =     16.63814  eV     1   --> A              
     e(123 -123) =     16.73458  eV     1   --> A              
     e(124 -124) =     16.82076  eV     1   --> A              
     e(125 -125) =     17.06229  eV     1   --> A              
     e(126 -126) =     17.13923  eV     1   --> A              
     e(127 -127) =     17.15738  eV     1   --> A              
     e(128 -128) =     17.80884  eV     1   --> A              
     e(129 -129) =     17.97261  eV     1   --> A              
     e(130 -130) =     17.97757  eV     1   --> A              
     e(131 -131) =     18.29872  eV     1   --> A              
     e(132 -132) =     18.38450  eV     1   --> A              
     e(133 -133) =     18.48027  eV     1   --> A              
     e(134 -134) =     18.50221  eV     1   --> A              
     e(135 -135) =     18.92098  eV     1   --> A              
     e(136 -136) =     19.01690  eV     1   --> A              
     e(137 -137) =     19.19687  eV     1   --> A              
     e(138 -138) =     19.30244  eV     1   --> A              
     e(139 -139) =     19.36835  eV     1   --> A              
     e(140 -140) =     19.61503  eV     1   --> A              
     e(141 -141) =     19.79631  eV     1   --> A              
     e(142 -142) =     20.23542  eV     1   --> A              
     e(143 -143) =     20.68647  eV     1   --> A              
     e(144 -144) =     20.75600  eV     1   --> A              
     e(145 -145) =     20.82453  eV     1   --> A              
     e(146 -146) =     21.12637  eV     1   --> A              
     e(147 -147) =     21.20766  eV     1   --> A              
     e(148 -148) =     21.26809  eV     1   --> A              
     e(149 -149) =     21.31849  eV     1   --> A              
     e(150 -150) =     21.46396  eV     1   --> A              
     e(151 -151) =     21.86845  eV     1   --> A              
     e(152 -152) =     21.91709  eV     1   --> A              
     e(153 -153) =     22.03211  eV     1   --> A              
     e(154 -154) =     22.22511  eV     1   --> A              
     e(155 -155) =     22.84373  eV     1   --> A              
     e(156 -156) =     23.40021  eV     1   --> A              
     e(157 -157) =     23.42795  eV     1   --> A              
     e(158 -158) =     23.73258  eV     1   --> A              
     e(159 -159) =     23.79841  eV     1   --> A              
     e(160 -160) =     24.03292  eV     1   --> A              
     e(161 -161) =     24.23778  eV     1   --> A              
     e(162 -162) =     24.28795  eV     1   --> A              
     e(163 -163) =     24.40250  eV     1   --> A              
     e(164 -164) =     24.94363  eV     1   --> A              
     e(165 -165) =     25.15965  eV     1   --> A              
     e(166 -166) =     25.72573  eV     1   --> A              
     e(167 -167) =     25.84899  eV     1   --> A              
     e(168 -168) =     26.27625  eV     1   --> A              
     e(169 -169) =     26.42161  eV     1   --> A              
     e(170 -170) =     26.42336  eV     1   --> A              
     e(171 -171) =     26.86425  eV     1   --> A              
     e(172 -172) =     26.97403  eV     1   --> A              
     e(173 -173) =     27.16860  eV     1   --> A              
     e(174 -174) =     27.28880  eV     1   --> A              
     e(175 -175) =     27.59056  eV     1   --> A              
     e(176 -176) =     27.83138  eV     1   --> A              
     e(177 -177) =     27.94115  eV     1   --> A              
     e(178 -178) =     27.98311  eV     1   --> A              
     e(179 -179) =     28.12203  eV     1   --> A              
     e(180 -180) =     28.20983  eV     1   --> A              
     e(181 -181) =     28.26052  eV     1   --> A              
     e(182 -182) =     28.36174  eV     1   --> A              
     e(183 -183) =     28.41922  eV     1   --> A              
     e(184 -184) =     29.06722  eV     1   --> A              
     e(185 -185) =     29.17348  eV     1   --> A              
     e(186 -186) =     29.30575  eV     1   --> A              
     e(187 -187) =     29.36677  eV     1   --> A              
     e(188 -188) =     29.38035  eV     1   --> A              
     e(189 -189) =     29.45169  eV     1   --> A              
     e(190 -190) =     29.52547  eV     1   --> A              
     e(191 -191) =     29.54765  eV     1   --> A              
     e(192 -192) =     29.61006  eV     1   --> A              
     e(193 -193) =     29.65108  eV     1   --> A              
     e(194 -194) =     29.79076  eV     1   --> A              
     e(195 -195) =     29.87966  eV     1   --> A              
     e(196 -196) =     30.00417  eV     1   --> A              
     e(197 -197) =     30.07558  eV     1   --> A              
     e(198 -198) =     30.33241  eV     1   --> A              
     e(199 -199) =     30.46324  eV     1   --> A              
     e(200 -200) =     30.66916  eV     1   --> A              

 **************************************************************************

 **************************************************************************

                    xk=(   0.37815,   0.21924,  -0.03000  )

     Band symmetry, C_1 (1)     point group:

     e(  1 -  1) =    -73.97299  eV     1   --> A              
     e(  2 -  2) =    -69.34981  eV     1   --> A              
     e(  3 -  3) =    -42.72687  eV     1   --> A              
     e(  4 -  4) =    -42.72170  eV     1   --> A              
     e(  5 -  5) =    -42.72049  eV     1   --> A              
     e(  6 -  6) =    -38.19115  eV     1   --> A              
     e(  7 -  7) =    -38.18684  eV     1   --> A              
     e(  8 -  8) =    -38.17222  eV     1   --> A              
     e(  9 - 10) =    -15.57334  eV     2   -->   2 A              
     e( 11 - 12) =    -15.57285  eV     2   -->   2 A              
     e( 13 - 14) =    -15.56273  eV     2   -->   2 A              
     e( 15 - 15) =    -15.56194  eV     1   --> A              
     e( 16 - 16) =    -15.56173  eV     1   --> A              
     e( 17 - 18) =    -15.56066  eV     2   -->   2 A              
     e( 19 - 20) =    -15.55768  eV     2   -->   2 A              
     e( 21 - 22) =    -15.55725  eV     2   -->   2 A              
     e( 23 - 23) =    -15.55028  eV     1   --> A              
     e( 24 - 24) =    -15.55006  eV     1   --> A              
     e( 25 - 26) =    -15.54354  eV     2   -->   2 A              
     e( 27 - 28) =    -15.54314  eV     2   -->   2 A              
     e( 29 - 29) =     -5.57823  eV     1   --> A              
     e( 30 - 30) =     -5.54890  eV     1   --> A              
     e( 31 - 31) =     -5.38084  eV     1   --> A              
     e( 32 - 32) =     -5.33672  eV     1   --> A              
     e( 33 - 33) =     -3.82655  eV     1   --> A              
     e( 34 - 34) =     -3.60958  eV     1   --> A              
     e( 35 - 35) =     -3.36870  eV     1   --> A              
     e( 36 - 36) =     -3.09036  eV     1   --> A              
     e( 37 - 37) =     -1.59086  eV     1   --> A              
     e( 38 - 38) =     -1.26447  eV     1   --> A              
     e( 39 - 39) =     -0.92571  eV     1   --> A              
     e( 40 - 40) =     -0.66957  eV     1   --> A              
     e( 41 - 41) =      3.69081  eV     1   --> A              
     e( 42 - 42) =      4.19296  eV     1   --> A              
     e( 43 - 43) =      4.22780  eV     1   --> A              
     e( 44 - 44) =      4.25801  eV     1   --> A              
     e( 45 - 45) =      4.83938  eV     1   --> A              
     e( 46 - 46) =      4.84715  eV     1   --> A              
     e( 47 - 47) =      5.00082  eV     1   --> A              
     e( 48 - 48) =      5.09380  eV     1   --> A              
     e( 49 - 49) =      5.24991  eV     1   --> A              
     e( 50 - 50) =      5.65164  eV     1   --> A              
     e( 51 - 51) =      5.74760  eV     1   --> A              
     e( 52 - 52) =      5.76032  eV     1   --> A              
     e( 53 - 53) =      5.81957  eV     1   --> A              
     e( 54 - 54) =      5.85149  eV     1   --> A              
     e( 55 - 55) =      5.94501  eV     1   --> A              
     e( 56 - 56) =      6.00580  eV     1   --> A              
     e( 57 - 57) =      6.09874  eV     1   --> A              
     e( 58 - 58) =      6.29258  eV     1   --> A              
     e( 59 - 59) =      6.34397  eV     1   --> A              
     e( 60 - 60) =      6.48929  eV     1   --> A              
     e( 61 - 61) =      6.57395  eV     1   --> A              
     e( 62 - 62) =      6.79812  eV     1   --> A              
     e( 63 - 63) =      6.91171  eV     1   --> A              
     e( 64 - 64) =      6.98957  eV     1   --> A              
     e( 65 - 65) =      7.03355  eV     1   --> A              
     e( 66 - 66) =      7.15063  eV     1   --> A              
     e( 67 - 67) =      7.48996  eV     1   --> A              
     e( 68 - 68) =      7.49016  eV     1   --> A              
     e( 69 - 69) =      7.67087  eV     1   --> A              
     e( 70 - 70) =      8.50536  eV     1   --> A              
     e( 71 - 71) =      8.60430  eV     1   --> A              
     e( 72 - 72) =      8.60850  eV     1   --> A              
     e( 73 - 73) =      8.74060  eV     1   --> A              
     e( 74 - 74) =      8.81209  eV     1   --> A              
     e( 75 - 75) =      8.84945  eV     1   --> A              
     e( 76 - 76) =      8.93033  eV     1   --> A              
     e( 77 - 77) =      9.00578  eV     1   --> A              
     e( 78 - 78) =      9.04687  eV     1   --> A              
     e( 79 - 79) =      9.09716  eV     1   --> A              
     e( 80 - 80) =      9.16013  eV     1   --> A              
     e( 81 - 81) =      9.24990  eV     1   --> A              
     e( 82 - 82) =      9.30971  eV     1   --> A              
     e( 83 - 83) =      9.46079  eV     1   --> A              
     e( 84 - 84) =      9.48183  eV     1   --> A              
     e( 85 - 85) =     10.15833  eV     1   --> A              
     e( 86 - 86) =     10.18894  eV     1   --> A              
     e( 87 - 87) =     11.58703  eV     1   --> A              
     e( 88 - 88) =     11.79366  eV     1   --> A              
     e( 89 - 89) =     11.89028  eV     1   --> A              
     e( 90 - 90) =     12.66389  eV     1   --> A              
     e( 91 - 91) =     12.74425  eV     1   --> A              
     e( 92 - 92) =     12.94098  eV     1   --> A              
     e( 93 - 93) =     13.02138  eV     1   --> A              
     e( 94 - 94) =     13.30749  eV     1   --> A              
     e( 95 - 95) =     13.39984  eV     1   --> A              
     e( 96 - 96) =     13.46442  eV     1   --> A              
     e( 97 - 97) =     13.48018  eV     1   --> A              
     e( 98 - 98) =     13.50931  eV     1   --> A              
     e( 99 - 99) =     13.77554  eV     1   --> A              
     e(100 -100) =     13.86777  eV     1   --> A              
     e(101 -101) =     13.89552  eV     1   --> A              
     e(102 -102) =     13.98930  eV     1   --> A              
     e(103 -103) =     14.10895  eV     1   --> A              
     e(104 -104) =     14.31853  eV     1   --> A              
     e(105 -105) =     14.46576  eV     1   --> A              
     e(106 -106) =     14.58972  eV     1   --> A              
     e(107 -107) =     14.66770  eV     1   --> A              
     e(108 -108) =     14.78472  eV     1   --> A              
     e(109 -109) =     15.28256  eV     1   --> A              
     e(110 -110) =     15.32170  eV     1   --> A              
     e(111 -111) =     15.48764  eV     1   --> A              
     e(112 -112) =     15.57092  eV     1   --> A              
     e(113 -113) =     15.64986  eV     1   --> A              
     e(114 -114) =     15.74839  eV     1   --> A              
     e(115 -115) =     15.79816  eV     1   --> A              
     e(116 -116) =     15.92476  eV     1   --> A              
     e(117 -117) =     16.10777  eV     1   --> A              
     e(118 -118) =     16.15577  eV     1   --> A              
     e(119 -119) =     16.18916  eV     1   --> A              
     e(120 -120) =     16.21689  eV     1   --> A              
     e(121 -121) =     16.34974  eV     1   --> A              
     e(122 -122) =     16.59558  eV     1   --> A              
     e(123 -123) =     16.80444  eV     1   --> A              
     e(124 -124) =     16.98517  eV     1   --> A              
     e(125 -125) =     17.20156  eV     1   --> A              
     e(126 -126) =     17.27619  eV     1   --> A              
     e(127 -127) =     17.38150  eV     1   --> A              
     e(128 -128) =     17.81604  eV     1   --> A              
     e(129 -129) =     17.88502  eV     1   --> A              
     e(130 -130) =     18.00634  eV     1   --> A              
     e(131 -131) =     18.05129  eV     1   --> A              
     e(132 -132) =     18.35424  eV     1   --> A              
     e(133 -133) =     18.45202  eV     1   --> A              
     e(134 -134) =     18.62442  eV     1   --> A              
     e(135 -135) =     18.86887  eV     1   --> A              
     e(136 -136) =     19.06614  eV     1   --> A              
     e(137 -137) =     19.32493  eV     1   --> A              
     e(138 -138) =     19.33516  eV     1   --> A              
     e(139 -139) =     19.48840  eV     1   --> A              
     e(140 -140) =     19.76779  eV     1   --> A              
     e(141 -141) =     19.97064  eV     1   --> A              
     e(142 -142) =     20.38334  eV     1   --> A              
     e(143 -143) =     20.54975  eV     1   --> A              
     e(144 -144) =     20.59994  eV     1   --> A              
     e(145 -145) =     20.60941  eV     1   --> A              
     e(146 -146) =     21.00999  eV     1   --> A              
     e(147 -147) =     21.18790  eV     1   --> A              
     e(148 -148) =     21.29447  eV     1   --> A              
     e(149 -149) =     21.35568  eV     1   --> A              
     e(150 -150) =     21.64703  eV     1   --> A              
     e(151 -151) =     22.01538  eV     1   --> A              
     e(152 -152) =     22.08581  eV     1   --> A              
     e(153 -153) =     22.28543  eV     1   --> A              
     e(154 -154) =     22.44937  eV     1   --> A              
     e(155 -155) =     22.75351  eV     1   --> A              
     e(156 -156) =     23.27577  eV     1   --> A              
     e(157 -157) =     23.28511  eV     1   --> A              
     e(158 -158) =     23.58493  eV     1   --> A              
     e(159 -159) =     23.72006  eV     1   --> A              
     e(160 -160) =     24.11520  eV     1   --> A              
     e(161 -161) =     24.31933  eV     1   --> A              
     e(162 -162) =     24.47535  eV     1   --> A              
     e(163 -163) =     24.59951  eV     1   --> A              
     e(164 -164) =     24.85864  eV     1   --> A              
     e(165 -165) =     25.28044  eV     1   --> A              
     e(166 -166) =     25.85242  eV     1   --> A              
     e(167 -167) =     25.90473  eV     1   --> A              
     e(168 -168) =     26.03452  eV     1   --> A              
     e(169 -169) =     26.30621  eV     1   --> A              
     e(170 -170) =     26.64301  eV     1   --> A              
     e(171 -171) =     26.75806  eV     1   --> A              
     e(172 -172) =     26.93237  eV     1   --> A              
     e(173 -173) =     27.03908  eV     1   --> A              
     e(174 -174) =     27.14406  eV     1   --> A              
     e(175 -175) =     27.68735  eV     1   --> A              
     e(176 -176) =     27.92232  eV     1   --> A              
     e(177 -177) =     27.96553  eV     1   --> A              
     e(178 -178) =     27.96563  eV     1   --> A              
     e(179 -179) =     27.98481  eV     1   --> A              
     e(180 -180) =     28.09477  eV     1   --> A              
     e(181 -181) =     28.15840  eV     1   --> A              
     e(182 -182) =     28.20369  eV     1   --> A              
     e(183 -183) =     28.31179  eV     1   --> A              
     e(184 -184) =     28.84715  eV     1   --> A              
     e(185 -185) =     28.91949  eV     1   --> A              
     e(186 -186) =     29.08713  eV     1   --> A              
     e(187 -187) =     29.11308  eV     1   --> A              
     e(188 -188) =     29.18953  eV     1   --> A              
     e(189 -189) =     29.27547  eV     1   --> A              
     e(190 -190) =     29.41638  eV     1   --> A              
     e(191 -191) =     29.43800  eV     1   --> A              
     e(192 -192) =     29.54071  eV     1   --> A              
     e(193 -193) =     29.57812  eV     1   --> A              
     e(194 -194) =     29.63568  eV     1   --> A              
     e(195 -195) =     29.69627  eV     1   --> A              
     e(196 -196) =     29.79899  eV     1   --> A              
     e(197 -197) =     29.86853  eV     1   --> A              
     e(198 -198) =     29.97532  eV     1   --> A              
     e(199 -199) =     30.20498  eV     1   --> A              
     e(200 -200) =     30.45759  eV     1   --> A              

 **************************************************************************

 **************************************************************************

                    xk=(   0.50420,   0.29232,  -0.04000  )

     Band symmetry, C_1 (1)     point group:

     e(  1 -  1) =    -73.97299  eV     1   --> A              
     e(  2 -  2) =    -69.34981  eV     1   --> A              
     e(  3 -  3) =    -42.72689  eV     1   --> A              
     e(  4 -  4) =    -42.72171  eV     1   --> A              
     e(  5 -  5) =    -42.72049  eV     1   --> A              
     e(  6 -  6) =    -38.19118  eV     1   --> A              
     e(  7 -  7) =    -38.18684  eV     1   --> A              
     e(  8 -  8) =    -38.17222  eV     1   --> A              
     e(  9 - 10) =    -15.57363  eV     2   -->   2 A              
     e( 11 - 12) =    -15.57258  eV     2   -->   2 A              
     e( 13 - 14) =    -15.56302  eV     2   -->   2 A              
     e( 15 - 15) =    -15.56170  eV     1   --> A              
     e( 16 - 16) =    -15.56149  eV     1   --> A              
     e( 17 - 18) =    -15.56042  eV     2   -->   2 A              
     e( 19 - 20) =    -15.55770  eV     2   -->   2 A              
     e( 21 - 22) =    -15.55735  eV     2   -->   2 A              
     e( 23 - 23) =    -15.55004  eV     1   --> A              
     e( 24 - 24) =    -15.54982  eV     1   --> A              
     e( 25 - 26) =    -15.54357  eV     2   -->   2 A              
     e( 27 - 28) =    -15.54320  eV     2   -->   2 A              
     e( 29 - 29) =     -5.55366  eV     1   --> A              
     e( 30 - 30) =     -5.52447  eV     1   --> A              
     e( 31 - 31) =     -5.35683  eV     1   --> A              
     e( 32 - 32) =     -5.31294  eV     1   --> A              
     e( 33 - 33) =     -3.80875  eV     1   --> A              
     e( 34 - 34) =     -3.59316  eV     1   --> A              
     e( 35 - 35) =     -3.35527  eV     1   --> A              
     e( 36 - 36) =     -3.07938  eV     1   --> A              
     e( 37 - 37) =     -1.59756  eV     1   --> A              
     e( 38 - 38) =     -1.28031  eV     1   --> A              
     e( 39 - 39) =     -0.94770  eV     1   --> A              
     e( 40 - 40) =     -0.70207  eV     1   --> A              
     e( 41 - 41) =      3.68587  eV     1   --> A              
     e( 42 - 42) =      4.17245  eV     1   --> A              
     e( 43 - 43) =      4.20871  eV     1   --> A              
     e( 44 - 44) =      4.26201  eV     1   --> A              
     e( 45 - 45) =      4.82015  eV     1   --> A              
     e( 46 - 46) =      4.84027  eV     1   --> A              
     e( 47 - 47) =      4.92758  eV     1   --> A              
     e( 48 - 48) =      4.98125  eV     1   --> A              
     e( 49 - 49) =      5.17076  eV     1   --> A              
     e( 50 - 50) =      5.52173  eV     1   --> A              
     e( 51 - 51) =      5.58704  eV     1   --> A              
     e( 52 - 52) =      5.70850  eV     1   --> A              
     e( 53 - 53) =      5.75584  eV     1   --> A              
     e( 54 - 54) =      5.78143  eV     1   --> A              
     e( 55 - 55) =      5.91851  eV     1   --> A              
     e( 56 - 56) =      6.00219  eV     1   --> A              
     e( 57 - 57) =      6.03652  eV     1   --> A              
     e( 58 - 58) =      6.27664  eV     1   --> A              
     e( 59 - 59) =      6.29097  eV     1   --> A              
     e( 60 - 60) =      6.41402  eV     1   --> A              
     e( 61 - 61) =      6.53224  eV     1   --> A              
     e( 62 - 62) =      6.87740  eV     1   --> A              
     e( 63 - 63) =      6.87759  eV     1   --> A              
     e( 64 - 64) =      6.97741  eV     1   --> A              
     e( 65 - 65) =      6.98856  eV     1   --> A              
     e( 66 - 66) =      7.14944  eV     1   --> A              
     e( 67 - 67) =      7.40010  eV     1   --> A              
     e( 68 - 68) =      7.48842  eV     1   --> A              
     e( 69 - 69) =      7.61463  eV     1   --> A              
     e( 70 - 70) =      8.49415  eV     1   --> A              
     e( 71 - 71) =      8.64838  eV     1   --> A              
     e( 72 - 72) =      8.70770  eV     1   --> A              
     e( 73 - 73) =      8.79614  eV     1   --> A              
     e( 74 - 74) =      8.85528  eV     1   --> A              
     e( 75 - 75) =      8.86299  eV     1   --> A              
     e( 76 - 76) =      8.95584  eV     1   --> A              
     e( 77 - 77) =      9.00732  eV     1   --> A              
     e( 78 - 78) =      9.06902  eV     1   --> A              
     e( 79 - 79) =      9.14094  eV     1   --> A              
     e( 80 - 80) =      9.21636  eV     1   --> A              
     e( 81 - 81) =      9.34955  eV     1   --> A              
     e( 82 - 82) =      9.39449  eV     1   --> A              
     e( 83 - 83) =      9.50310  eV     1   --> A              
     e( 84 - 84) =      9.59351  eV     1   --> A              
     e( 85 - 85) =     10.18095  eV     1   --> A              
     e( 86 - 86) =     10.20207  eV     1   --> A              
     e( 87 - 87) =     11.65461  eV     1   --> A              
     e( 88 - 88) =     11.78831  eV     1   --> A              
     e( 89 - 89) =     11.95817  eV     1   --> A              
     e( 90 - 90) =     12.68610  eV     1   --> A              
     e( 91 - 91) =     12.71282  eV     1   --> A              
     e( 92 - 92) =     12.99678  eV     1   --> A              
     e( 93 - 93) =     13.00539  eV     1   --> A              
     e( 94 - 94) =     13.18281  eV     1   --> A              
     e( 95 - 95) =     13.32468  eV     1   --> A              
     e( 96 - 96) =     13.38049  eV     1   --> A              
     e( 97 - 97) =     13.47730  eV     1   --> A              
     e( 98 - 98) =     13.54947  eV     1   --> A              
     e( 99 - 99) =     13.82349  eV     1   --> A              
     e(100 -100) =     13.85274  eV     1   --> A              
     e(101 -101) =     13.88696  eV     1   --> A              
     e(102 -102) =     13.94576  eV     1   --> A              
     e(103 -103) =     14.18338  eV     1   --> A              
     e(104 -104) =     14.34609  eV     1   --> A              
     e(105 -105) =     14.53078  eV     1   --> A              
     e(106 -106) =     14.54906  eV     1   --> A              
     e(107 -107) =     14.62919  eV     1   --> A              
     e(108 -108) =     14.85135  eV     1   --> A              
     e(109 -109) =     15.21795  eV     1   --> A              
     e(110 -110) =     15.35450  eV     1   --> A              
     e(111 -111) =     15.61588  eV     1   --> A              
     e(112 -112) =     15.67187  eV     1   --> A              
     e(113 -113) =     15.78183  eV     1   --> A              
     e(114 -114) =     15.87564  eV     1   --> A              
     e(115 -115) =     15.90525  eV     1   --> A              
     e(116 -116) =     16.00968  eV     1   --> A              
     e(117 -117) =     16.02913  eV     1   --> A              
     e(118 -118) =     16.13846  eV     1   --> A              
     e(119 -119) =     16.19764  eV     1   --> A              
     e(120 -120) =     16.37439  eV     1   --> A              
     e(121 -121) =     16.52405  eV     1   --> A              
     e(122 -122) =     16.56359  eV     1   --> A              
     e(123 -123) =     16.88827  eV     1   --> A              
     e(124 -124) =     17.15848  eV     1   --> A              
     e(125 -125) =     17.32531  eV     1   --> A              
     e(126 -126) =     17.36173  eV     1   --> A              
     e(127 -127) =     17.62187  eV     1   --> A              
     e(128 -128) =     17.78700  eV     1   --> A              
     e(129 -129) =     17.80630  eV     1   --> A              
     e(130 -130) =     17.89242  eV     1   --> A              
     e(131 -131) =     18.12649  eV     1   --> A              
     e(132 -132) =     18.21352  eV     1   --> A              
     e(133 -133) =     18.50851  eV     1   --> A              
     e(134 -134) =     18.71505  eV     1   --> A              
     e(135 -135) =     18.94033  eV     1   --> A              
     e(136 -136) =     19.19507  eV     1   --> A              
     e(137 -137) =     19.22156  eV     1   --> A              
     e(138 -138) =     19.46893  eV     1   --> A              
     e(139 -139) =     19.68655  eV     1   --> A              
     e(140 -140) =     19.81852  eV     1   --> A              
     e(141 -141) =     20.01633  eV     1   --> A              
     e(142 -142) =     20.41815  eV     1   --> A              
     e(143 -143) =     20.47248  eV     1   --> A              
     e(144 -144) =     20.53333  eV     1   --> A              
     e(145 -145) =     20.71560  eV     1   --> A              
     e(146 -146) =     20.90366  eV     1   --> A              
     e(147 -147) =     21.14377  eV     1   --> A              
     e(148 -148) =     21.31529  eV     1   --> A              
     e(149 -149) =     21.47053  eV     1   --> A              
     e(150 -150) =     21.83429  eV     1   --> A              
     e(151 -151) =     22.13758  eV     1   --> A              
     e(152 -152) =     22.27053  eV     1   --> A              
     e(153 -153) =     22.33327  eV     1   --> A              
     e(154 -154) =     22.59243  eV     1   --> A              
     e(155 -155) =     22.94089  eV     1   --> A              
     e(156 -156) =     23.12401  eV     1   --> A              
     e(157 -157) =     23.19639  eV     1   --> A              
     e(158 -158) =     23.42961  eV     1   --> A              
     e(159 -159) =     23.63178  eV     1   --> A              
     e(160 -160) =     24.25211  eV     1   --> A              
     e(161 -161) =     24.41401  eV     1   --> A              
     e(162 -162) =     24.67585  eV     1   --> A              
     e(163 -163) =     24.76481  eV     1   --> A              
     e(164 -164) =     24.78289  eV     1   --> A              
     e(165 -165) =     25.42947  eV     1   --> A              
     e(166 -166) =     25.75308  eV     1   --> A              
     e(167 -167) =     25.95049  eV     1   --> A              
     e(168 -168) =     26.05527  eV     1   --> A              
     e(169 -169) =     26.17443  eV     1   --> A              
     e(170 -170) =     26.58520  eV     1   --> A              
     e(171 -171) =     26.71190  eV     1   --> A              
     e(172 -172) =     26.88163  eV     1   --> A              
     e(173 -173) =     26.99795  eV     1   --> A              
     e(174 -174) =     27.20759  eV     1   --> A              
     e(175 -175) =     27.50951  eV     1   --> A              
     e(176 -176) =     27.57945  eV     1   --> A              
     e(177 -177) =     27.74893  eV     1   --> A              
     e(178 -178) =     27.81190  eV     1   --> A              
     e(179 -179) =     27.93585  eV     1   --> A              
     e(180 -180) =     27.94052  eV     1   --> A              
     e(181 -181) =     28.01741  eV     1   --> A              
     e(182 -182) =     28.32763  eV     1   --> A              
     e(183 -183) =     28.39455  eV     1   --> A              
     e(184 -184) =     28.46854  eV     1   --> A              
     e(185 -185) =     28.64203  eV     1   --> A              
     e(186 -186) =     28.69821  eV     1   --> A              
     e(187 -187) =     28.88632  eV     1   --> A              
     e(188 -188) =     29.10463  eV     1   --> A              
     e(189 -189) =     29.13367  eV     1   --> A              
     e(190 -190) =     29.19364  eV     1   --> A              
     e(191 -191) =     29.19600  eV     1   --> A              
     e(192 -192) =     29.37642  eV     1   --> A              
     e(193 -193) =     29.49612  eV     1   --> A              
     e(194 -194) =     29.52598  eV     1   --> A              
     e(195 -195) =     29.61391  eV     1   --> A              
     e(196 -196) =     29.64364  eV     1   --> A              
     e(197 -197) =     29.75754  eV     1   --> A              
     e(198 -198) =     29.81921  eV     1   --> A              
     e(199 -199) =     29.88046  eV     1   --> A              
     e(200 -200) =     30.09520  eV     1   --> A              

 **************************************************************************

 **************************************************************************

                    xk=(   0.63025,   0.36540,  -0.05000  )

     Band symmetry, C_1 (1)     point group:

     e(  1 -  1) =    -73.97299  eV     1   --> A              
     e(  2 -  2) =    -69.34981  eV     1   --> A              
     e(  3 -  3) =    -42.72691  eV     1   --> A              
     e(  4 -  4) =    -42.72171  eV     1   --> A              
     e(  5 -  5) =    -42.72048  eV     1   --> A              
     e(  6 -  6) =    -38.19121  eV     1   --> A              
     e(  7 -  7) =    -38.18685  eV     1   --> A              
     e(  8 -  8) =    -38.17221  eV     1   --> A              
     e(  9 - 10) =    -15.57393  eV     2   -->   2 A              
     e( 11 - 12) =    -15.57216  eV     2   -->   2 A              
     e( 13 - 14) =    -15.56332  eV     2   -->   2 A              
     e( 15 - 15) =    -15.56138  eV     1   --> A              
     e( 16 - 16) =    -15.56116  eV     1   --> A              
     e( 17 - 18) =    -15.56003  eV     2   -->   2 A              
     e( 19 - 20) =    -15.55778  eV     2   -->   2 A              
     e( 21 - 22) =    -15.55726  eV     2   -->   2 A              
     e( 23 - 23) =    -15.54971  eV     1   --> A              
     e( 24 - 24) =    -15.54949  eV     1   --> A              
     e( 25 - 26) =    -15.54363  eV     2   -->   2 A              
     e( 27 - 28) =    -15.54309  eV     2   -->   2 A              
     e( 29 - 29) =     -5.52216  eV     1   --> A              
     e( 30 - 30) =     -5.49316  eV     1   --> A              
     e( 31 - 31) =     -5.32608  eV     1   --> A              
     e( 32 - 32) =     -5.28248  eV     1   --> A              
     e( 33 - 33) =     -3.78612  eV     1   --> A              
     e( 34 - 34) =     -3.57232  eV     1   --> A              
     e( 35 - 35) =     -3.33832  eV     1   --> A              
     e( 36 - 36) =     -3.06559  eV     1   --> A              
     e( 37 - 37) =     -1.60691  eV     1   --> A              
     e( 38 - 38) =     -1.30111  eV     1   --> A              
     e( 39 - 39) =     -0.97655  eV     1   --> A              
     e( 40 - 40) =     -0.74378  eV     1   --> A              
     e( 41 - 41) =      3.67666  eV     1   --> A              
     e( 42 - 42) =      4.14620  eV     1   --> A              
     e( 43 - 43) =      4.18320  eV     1   --> A              
     e( 44 - 44) =      4.26690  eV     1   --> A              
     e( 45 - 45) =      4.75825  eV     1   --> A              
     e( 46 - 46) =      4.83173  eV     1   --> A              
     e( 47 - 47) =      4.83866  eV     1   --> A              
     e( 48 - 48) =      4.85368  eV     1   --> A              
     e( 49 - 49) =      5.12813  eV     1   --> A              
     e( 50 - 50) =      5.37121  eV     1   --> A              
     e( 51 - 51) =      5.46067  eV     1   --> A              
     e( 52 - 52) =      5.64576  eV     1   --> A              
     e( 53 - 53) =      5.69497  eV     1   --> A              
     e( 54 - 54) =      5.70610  eV     1   --> A              
     e( 55 - 55) =      5.87672  eV     1   --> A              
     e( 56 - 56) =      5.91280  eV     1   --> A              
     e( 57 - 57) =      5.96901  eV     1   --> A              
     e( 58 - 58) =      6.17927  eV     1   --> A              
     e( 59 - 59) =      6.28391  eV     1   --> A              
     e( 60 - 60) =      6.28516  eV     1   --> A              
     e( 61 - 61) =      6.60114  eV     1   --> A              
     e( 62 - 62) =      6.77485  eV     1   --> A              
     e( 63 - 63) =      6.83968  eV     1   --> A              
     e( 64 - 64) =      6.97824  eV     1   --> A              
     e( 65 - 65) =      7.00627  eV     1   --> A              
     e( 66 - 66) =      7.12616  eV     1   --> A              
     e( 67 - 67) =      7.38103  eV     1   --> A              
     e( 68 - 68) =      7.48557  eV     1   --> A              
     e( 69 - 69) =      7.53581  eV     1   --> A              
     e( 70 - 70) =      8.45509  eV     1   --> A              
     e( 71 - 71) =      8.69895  eV     1   --> A              
     e( 72 - 72) =      8.76712  eV     1   --> A              
     e( 73 - 73) =      8.85417  eV     1   --> A              
     e( 74 - 74) =      8.88146  eV     1   --> A              
     e( 75 - 75) =      8.89460  eV     1   --> A              
     e( 76 - 76) =      8.97198  eV     1   --> A              
     e( 77 - 77) =      9.06544  eV     1   --> A              
     e( 78 - 78) =      9.09731  eV     1   --> A              
     e( 79 - 79) =      9.17325  eV     1   --> A              
     e( 80 - 80) =      9.32629  eV     1   --> A              
     e( 81 - 81) =      9.37860  eV     1   --> A              
     e( 82 - 82) =      9.53390  eV     1   --> A              
     e( 83 - 83) =      9.59801  eV     1   --> A              
     e( 84 - 84) =      9.69745  eV     1   --> A              
     e( 85 - 85) =     10.22180  eV     1   --> A              
     e( 86 - 86) =     10.24001  eV     1   --> A              
     e( 87 - 87) =     11.67820  eV     1   --> A              
     e( 88 - 88) =     11.80472  eV     1   --> A              
     e( 89 - 89) =     12.02878  eV     1   --> A              
     e( 90 - 90) =     12.61590  eV     1   --> A              
     e( 91 - 91) =     12.76374  eV     1   --> A              
     e( 92 - 92) =     12.97877  eV     1   --> A              
     e( 93 - 93) =     13.06335  eV     1   --> A              
     e( 94 - 94) =     13.07500  eV     1   --> A              
     e( 95 - 95) =     13.23970  eV     1   --> A              
     e( 96 - 96) =     13.35052  eV     1   --> A              
     e( 97 - 97) =     13.43035  eV     1   --> A              
     e( 98 - 98) =     13.63344  eV     1   --> A              
     e( 99 - 99) =     13.84555  eV     1   --> A              
     e(100 -100) =     13.87361  eV     1   --> A              
     e(101 -101) =     13.92123  eV     1   --> A              
     e(102 -102) =     13.93478  eV     1   --> A              
     e(103 -103) =     14.21524  eV     1   --> A              
     e(104 -104) =     14.37813  eV     1   --> A              
     e(105 -105) =     14.46231  eV     1   --> A              
     e(106 -106) =     14.57185  eV     1   --> A              
     e(107 -107) =     14.66948  eV     1   --> A              
     e(108 -108) =     14.95211  eV     1   --> A              
     e(109 -109) =     15.16188  eV     1   --> A              
     e(110 -110) =     15.34610  eV     1   --> A              
     e(111 -111) =     15.69043  eV     1   --> A              
     e(112 -112) =     15.84826  eV     1   --> A              
     e(113 -113) =     15.88725  eV     1   --> A              
     e(114 -114) =     15.95191  eV     1   --> A              
     e(115 -115) =     16.05448  eV     1   --> A              
     e(116 -116) =     16.05893  eV     1   --> A              
     e(117 -117) =     16.13629  eV     1   --> A              
     e(118 -118) =     16.13686  eV     1   --> A              
     e(119 -119) =     16.24921  eV     1   --> A              
     e(120 -120) =     16.47210  eV     1   --> A              
     e(121 -121) =     16.60582  eV     1   --> A              
     e(122 -122) =     16.79782  eV     1   --> A              
     e(123 -123) =     16.97570  eV     1   --> A              
     e(124 -124) =     17.30839  eV     1   --> A              
     e(125 -125) =     17.33392  eV     1   --> A              
     e(126 -126) =     17.51156  eV     1   --> A              
     e(127 -127) =     17.66695  eV     1   --> A              
     e(128 -128) =     17.71767  eV     1   --> A              
     e(129 -129) =     17.86157  eV     1   --> A              
     e(130 -130) =     18.02393  eV     1   --> A              
     e(131 -131) =     18.08700  eV     1   --> A              
     e(132 -132) =     18.26116  eV     1   --> A              
     e(133 -133) =     18.58897  eV     1   --> A              
     e(134 -134) =     18.72473  eV     1   --> A              
     e(135 -135) =     18.98336  eV     1   --> A              
     e(136 -136) =     19.20059  eV     1   --> A              
     e(137 -137) =     19.40372  eV     1   --> A              
     e(138 -138) =     19.61305  eV     1   --> A              
     e(139 -139) =     19.73193  eV     1   --> A              
     e(140 -140) =     19.88861  eV     1   --> A              
     e(141 -141) =     19.89676  eV     1   --> A              
     e(142 -142) =     20.35061  eV     1   --> A              
     e(143 -143) =     20.54933  eV     1   --> A              
     e(144 -144) =     20.68105  eV     1   --> A              
     e(145 -145) =     20.82072  eV     1   --> A              
     e(146 -146) =     20.93863  eV     1   --> A              
     e(147 -147) =     21.10349  eV     1   --> A              
     e(148 -148) =     21.35359  eV     1   --> A              
     e(149 -149) =     21.64120  eV     1   --> A              
     e(150 -150) =     22.02076  eV     1   --> A              
     e(151 -151) =     22.09395  eV     1   --> A              
     e(152 -152) =     22.24515  eV     1   --> A              
     e(153 -153) =     22.46594  eV     1   --> A              
     e(154 -154) =     22.90782  eV     1   --> A              
     e(155 -155) =     22.97719  eV     1   --> A              
     e(156 -156) =     23.06443  eV     1   --> A              
     e(157 -157) =     23.24675  eV     1   --> A              
     e(158 -158) =     23.33224  eV     1   --> A              
     e(159 -159) =     23.54475  eV     1   --> A              
     e(160 -160) =     24.42201  eV     1   --> A              
     e(161 -161) =     24.53189  eV     1   --> A              
     e(162 -162) =     24.70669  eV     1   --> A              
     e(163 -163) =     24.88354  eV     1   --> A              
     e(164 -164) =     24.90302  eV     1   --> A              
     e(165 -165) =     25.47318  eV     1   --> A              
     e(166 -166) =     25.59805  eV     1   --> A              
     e(167 -167) =     25.99659  eV     1   --> A              
     e(168 -168) =     26.03655  eV     1   --> A              
     e(169 -169) =     26.24412  eV     1   --> A              
     e(170 -170) =     26.42747  eV     1   --> A              
     e(171 -171) =     26.55876  eV     1   --> A              
     e(172 -172) =     26.85112  eV     1   --> A              
     e(173 -173) =     27.06253  eV     1   --> A              
     e(174 -174) =     27.11026  eV     1   --> A              
     e(175 -175) =     27.16990  eV     1   --> A              
     e(176 -176) =     27.34932  eV     1   --> A              
     e(177 -177) =     27.41341  eV     1   --> A              
     e(178 -178) =     27.42146  eV     1   --> A              
     e(179 -179) =     27.79164  eV     1   --> A              
     e(180 -180) =     27.86243  eV     1   --> A              
     e(181 -181) =     28.02552  eV     1   --> A              
     e(182 -182) =     28.04010  eV     1   --> A              
     e(183 -183) =     28.08725  eV     1   --> A              
     e(184 -184) =     28.37383  eV     1   --> A              
     e(185 -185) =     28.44367  eV     1   --> A              
     e(186 -186) =     28.65339  eV     1   --> A              
     e(187 -187) =     28.68931  eV     1   --> A              
     e(188 -188) =     28.80388  eV     1   --> A              
     e(189 -189) =     28.91075  eV     1   --> A              
     e(190 -190) =     28.93023  eV     1   --> A              
     e(191 -191) =     29.11770  eV     1   --> A              
     e(192 -192) =     29.18056  eV     1   --> A              
     e(193 -193) =     29.32587  eV     1   --> A              
     e(194 -194) =     29.41535  eV     1   --> A              
     e(195 -195) =     29.49184  eV     1   --> A              
     e(196 -196) =     29.62137  eV     1   --> A              
     e(197 -197) =     29.64515  eV     1   --> A              
     e(198 -198) =     29.66466  eV     1   --> A              
     e(199 -199) =     29.74376  eV     1   --> A              
     e(200 -200) =     29.81681  eV     1   --> A              

 **************************************************************************

 **************************************************************************

                    xk=(   0.75630,   0.43848,  -0.06000  )

     Band symmetry, C_1 (1)     point group:

     e(  1 -  1) =    -73.97299  eV     1   --> A              
     e(  2 -  2) =    -69.34981  eV     1   --> A              
     e(  3 -  3) =    -42.72693  eV     1   --> A              
     e(  4 -  4) =    -42.72171  eV     1   --> A              
     e(  5 -  5) =    -42.72048  eV     1   --> A              
     e(  6 -  6) =    -38.19124  eV     1   --> A              
     e(  7 -  7) =    -38.18686  eV     1   --> A              
     e(  8 -  8) =    -38.17221  eV     1   --> A              
     e(  9 - 10) =    -15.57435  eV     2   -->   2 A              
     e( 11 - 12) =    -15.57183  eV     2   -->   2 A              
     e( 13 - 14) =    -15.56376  eV     2   -->   2 A              
[...]
     e(105 -105) =     14.27660  eV     1   --> A              
     e(106 -106) =     14.65472  eV     1   --> A              
     e(107 -107) =     14.76992  eV     1   --> A              
     e(108 -108) =     14.77352  eV     1   --> A              
     e(109 -109) =     15.08241  eV     1   --> A              
     e(110 -110) =     15.19438  eV     1   --> A              
     e(111 -111) =     15.43012  eV     1   --> A              
     e(112 -112) =     15.44051  eV     1   --> A              
     e(113 -113) =     15.44942  eV     1   --> A              
     e(114 -114) =     15.58214  eV     1   --> A              
     e(115 -115) =     15.60264  eV     1   --> A              
     e(116 -116) =     15.80972  eV     1   --> A              
     e(117 -117) =     16.10152  eV     1   --> A              
     e(118 -118) =     16.29535  eV     1   --> A              
     e(119 -119) =     16.30482  eV     1   --> A              
     e(120 -120) =     16.31016  eV     1   --> A              
     e(121 -121) =     16.33981  eV     1   --> A              
     e(122 -122) =     16.63328  eV     1   --> A              
     e(123 -123) =     16.65973  eV     1   --> A              
     e(124 -124) =     16.67314  eV     1   --> A              
     e(125 -125) =     16.94892  eV     1   --> A              
     e(126 -126) =     16.95352  eV     1   --> A              
     e(127 -127) =     16.98057  eV     1   --> A              
     e(128 -128) =     17.79749  eV     1   --> A              
     e(129 -129) =     18.02425  eV     1   --> A              
     e(130 -130) =     18.05496  eV     1   --> A              
     e(131 -131) =     18.26928  eV     1   --> A              
     e(132 -132) =     18.35877  eV     1   --> A              
     e(133 -133) =     18.62013  eV     1   --> A              
     e(134 -134) =     18.64982  eV     1   --> A              
     e(135 -135) =     19.00230  eV     1   --> A              
     e(136 -136) =     19.05260  eV     1   --> A              
     e(137 -137) =     19.09180  eV     1   --> A              
     e(138 -138) =     19.12557  eV     1   --> A              
     e(139 -139) =     19.29600  eV     1   --> A              
     e(140 -140) =     19.39121  eV     1   --> A              
     e(141 -141) =     19.62565  eV     1   --> A              
     e(142 -142) =     20.15265  eV     1   --> A              
     e(143 -143) =     20.89064  eV     1   --> A              
     e(144 -144) =     20.93312  eV     1   --> A              
     e(145 -145) =     21.11787  eV     1   --> A              
     e(146 -146) =     21.21714  eV     1   --> A              
     e(147 -147) =     21.22319  eV     1   --> A              
     e(148 -148) =     21.25624  eV     1   --> A              
     e(149 -149) =     21.26089  eV     1   --> A              
     e(150 -150) =     21.32457  eV     1   --> A              
     e(151 -151) =     21.67437  eV     1   --> A              
     e(152 -152) =     21.76726  eV     1   --> A              
     e(153 -153) =     21.88430  eV     1   --> A              
     e(154 -154) =     21.89133  eV     1   --> A              
     e(155 -155) =     22.94712  eV     1   --> A              
     e(156 -156) =     23.55453  eV     1   --> A              
     e(157 -157) =     23.59143  eV     1   --> A              
     e(158 -158) =     23.84752  eV     1   --> A              
     e(159 -159) =     23.85611  eV     1   --> A              
     e(160 -160) =     24.00894  eV     1   --> A              
     e(161 -161) =     24.09470  eV     1   --> A              
     e(162 -162) =     24.16044  eV     1   --> A              
     e(163 -163) =     24.19860  eV     1   --> A              
     e(164 -164) =     25.02387  eV     1   --> A              
     e(165 -165) =     25.07341  eV     1   --> A              
     e(166 -166) =     25.63816  eV     1   --> A              
     e(167 -167) =     25.81424  eV     1   --> A              
     e(168 -168) =     26.22047  eV     1   --> A              
     e(169 -169) =     26.48414  eV     1   --> A              
     e(170 -170) =     26.51969  eV     1   --> A              
     e(171 -171) =     26.81611  eV     1   --> A              
     e(172 -172) =     27.14362  eV     1   --> A              
     e(173 -173) =     27.41324  eV     1   --> A              
     e(174 -174) =     27.42887  eV     1   --> A              
     e(175 -175) =     27.48648  eV     1   --> A              
     e(176 -176) =     27.59646  eV     1   --> A              
     e(177 -177) =     27.84126  eV     1   --> A              
     e(178 -178) =     27.84633  eV     1   --> A              
     e(179 -179) =     27.99674  eV     1   --> A              
     e(180 -180) =     28.38539  eV     1   --> A              
     e(181 -181) =     28.43031  eV     1   --> A              
     e(182 -182) =     28.53068  eV     1   --> A              
     e(183 -183) =     28.58577  eV     1   --> A              
     e(184 -184) =     29.05877  eV     1   --> A              
     e(185 -185) =     29.38426  eV     1   --> A              
     e(186 -186) =     29.40518  eV     1   --> A              
     e(187 -187) =     29.43974  eV     1   --> A              
     e(188 -188) =     29.55592  eV     1   --> A              
     e(189 -189) =     29.61509  eV     1   --> A              
     e(190 -190) =     29.64573  eV     1   --> A              
     e(191 -191) =     29.67575  eV     1   --> A              
     e(192 -192) =     29.68071  eV     1   --> A              
     e(193 -193) =     29.88647  eV     1   --> A              
     e(194 -194) =     29.92172  eV     1   --> A              
     e(195 -195) =     30.13932  eV     1   --> A              
     e(196 -196) =     30.19560  eV     1   --> A              
     e(197 -197) =     30.37141  eV     1   --> A              
     e(198 -198) =     30.57833  eV     1   --> A              
     e(199 -199) =     30.62211  eV     1   --> A              
     e(200 -200) =     30.70262  eV     1   --> A              

 **************************************************************************

 **************************************************************************

                    xk=(   0.00000,   0.00000,   0.00000  )

     point group C_i (-1)   
     there are  2 classes
     the character table:

       E     i    
A_g    1.00  1.00
A_u    1.00 -1.00

     the symmetry operations in each class and the name of the first element:

     E        1
                                                                 
     i        2
                                                                 

     Band symmetry, C_i (-1)    point group:

     e(  1 -  1) =    -73.97300  eV     1   --> A_g            
     e(  2 -  2) =    -69.34982  eV     1   --> A_g            
     e(  3 -  3) =    -42.72686  eV     1   --> A_u            
     e(  4 -  4) =    -42.72170  eV     1   --> A_u            
     e(  5 -  5) =    -42.72049  eV     1   --> A_u            
     e(  6 -  6) =    -38.19113  eV     1   --> A_u            
     e(  7 -  7) =    -38.18683  eV     1   --> A_u            
     e(  8 -  8) =    -38.17223  eV     1   --> A_u            
     e(  9 -  9) =    -15.57337  eV     1   --> A_g            
     e( 10 - 10) =    -15.57323  eV     1   --> A_u            
     e( 11 - 11) =    -15.57313  eV     1   --> A_g            
     e( 12 - 12) =    -15.57299  eV     1   --> A_u            
     e( 13 - 13) =    -15.56253  eV     1   --> A_g            
     e( 14 - 15) =    -15.56240  eV     2   --> A_g            
     e( 14 - 15) =    -15.56240  eV     2   --> A_u            
     e( 16 - 16) =    -15.56201  eV     1   --> A_u            
     e( 17 - 17) =    -15.56110  eV     1   --> A_g            
     e( 18 - 18) =    -15.56097  eV     1   --> A_u            
     e( 19 - 19) =    -15.55778  eV     1   --> A_g            
     e( 20 - 20) =    -15.55762  eV     1   --> A_u            
     e( 21 - 21) =    -15.55723  eV     1   --> A_g            
     e( 22 - 22) =    -15.55707  eV     1   --> A_u            
     e( 23 - 23) =    -15.55069  eV     1   --> A_g            
     e( 24 - 24) =    -15.55035  eV     1   --> A_u            
     e( 25 - 25) =    -15.54366  eV     1   --> A_g            
     e( 26 - 26) =    -15.54350  eV     1   --> A_u            
     e( 27 - 27) =    -15.54313  eV     1   --> A_g            
     e( 28 - 28) =    -15.54298  eV     1   --> A_u            
     e( 29 - 29) =     -5.60990  eV     1   --> A_g            
     e( 30 - 30) =     -5.58039  eV     1   --> A_u            
     e( 31 - 31) =     -5.41180  eV     1   --> A_g            
     e( 32 - 32) =     -5.36739  eV     1   --> A_u            
     e( 33 - 33) =     -3.84969  eV     1   --> A_g            
     e( 34 - 34) =     -3.63094  eV     1   --> A_g            
     e( 35 - 35) =     -3.38629  eV     1   --> A_u            
     e( 36 - 36) =     -3.10478  eV     1   --> A_u            
     e( 37 - 37) =     -1.58301  eV     1   --> A_g            
     e( 38 - 38) =     -1.24457  eV     1   --> A_u            
     e( 39 - 39) =     -0.89812  eV     1   --> A_g            
     e( 40 - 40) =     -0.62773  eV     1   --> A_u            
     e( 41 - 41) =      3.69410  eV     1   --> A_g            
     e( 42 - 42) =      4.22017  eV     1   --> A_g            
     e( 43 - 43) =      4.25208  eV     1   --> A_g            
     e( 44 - 44) =      4.25261  eV     1   --> A_g            
     e( 45 - 45) =      4.85431  eV     1   --> A_g            
     e( 46 - 46) =      4.85631  eV     1   --> A_g            
     e( 47 - 47) =      5.07831  eV     1   --> A_u            
     e( 48 - 48) =      5.17546  eV     1   --> A_g            
     e( 49 - 49) =      5.56699  eV     1   --> A_g            
     e( 50 - 50) =      5.83627  eV     1   --> A_g            
     e( 51 - 51) =      5.83766  eV     1   --> A_g            
     e( 52 - 52) =      5.93278  eV     1   --> A_u            
     e( 53 - 53) =      5.93322  eV     1   --> A_u            
     e( 54 - 54) =      6.01707  eV     1   --> A_g            
     e( 55 - 55) =      6.01838  eV     1   --> A_g            
     e( 56 - 56) =      6.14851  eV     1   --> A_u            
     e( 57 - 57) =      6.14885  eV     1   --> A_u            
     e( 58 - 58) =      6.21851  eV     1   --> A_u            
     e( 59 - 59) =      6.31162  eV     1   --> A_g            
     e( 60 - 60) =      6.31252  eV     1   --> A_g            
     e( 61 - 61) =      6.57367  eV     1   --> A_u            
     e( 62 - 62) =      6.91024  eV     1   --> A_u            
     e( 63 - 63) =      6.91094  eV     1   --> A_u            
     e( 64 - 64) =      7.03303  eV     1   --> A_u            
     e( 65 - 65) =      7.03376  eV     1   --> A_u            
     e( 66 - 66) =      7.47113  eV     1   --> A_g            
     e( 67 - 67) =      7.48155  eV     1   --> A_g            
     e( 68 - 68) =      7.48169  eV     1   --> A_g            
     e( 69 - 69) =      7.74026  eV     1   --> A_u            
     e( 70 - 70) =      8.31660  eV     1   --> A_g            
     e( 71 - 71) =      8.57814  eV     1   --> A_g            
     e( 72 - 72) =      8.57935  eV     1   --> A_g            
     e( 73 - 73) =      8.59365  eV     1   --> A_g            
     e( 74 - 74) =      8.84848  eV     1   --> A_g            
     e( 75 - 75) =      8.85257  eV     1   --> A_g            
     e( 76 - 76) =      8.87160  eV     1   --> A_u            
     e( 77 - 77) =      8.87200  eV     1   --> A_u            
     e( 78 - 78) =      8.91594  eV     1   --> A_g            
     e( 79 - 79) =      8.98440  eV     1   --> A_u            
     e( 80 - 80) =      9.14641  eV     1   --> A_u            
     e( 81 - 81) =      9.27113  eV     1   --> A_u            
     e( 82 - 82) =      9.27179  eV     1   --> A_u            
     e( 83 - 83) =      9.31120  eV     1   --> A_g            
     e( 84 - 84) =      9.31177  eV     1   --> A_g            
     e( 85 - 85) =     10.17584  eV     1   --> A_g            
     e( 86 - 86) =     10.17786  eV     1   --> A_g            
     e( 87 - 87) =     11.46700  eV     1   --> A_u            
     e( 88 - 88) =     11.75769  eV     1   --> A_g            
     e( 89 - 89) =     11.78288  eV     1   --> A_u            
     e( 90 - 90) =     12.56628  eV     1   --> A_g            
     e( 91 - 91) =     12.86163  eV     1   --> A_u            
     e( 92 - 92) =     12.86415  eV     1   --> A_u            
     e( 93 - 93) =     13.28148  eV     1   --> A_g            
     e( 94 - 94) =     13.33972  eV     1   --> A_g            
     e( 95 - 95) =     13.38541  eV     1   --> A_u            
     e( 96 - 96) =     13.38845  eV     1   --> A_u            
     e( 97 - 97) =     13.55695  eV     1   --> A_u            
     e( 98 - 98) =     13.71057  eV     1   --> A_g            
     e( 99 - 99) =     13.71137  eV     1   --> A_g            
     e(100 -100) =     13.83325  eV     1   --> A_u            
     e(101 -101) =     13.93147  eV     1   --> A_g            
     e(102 -102) =     14.17580  eV     1   --> A_u            
     e(103 -103) =     14.17768  eV     1   --> A_u            
     e(104 -104) =     14.23261  eV     1   --> A_g            
     e(105 -105) =     14.23323  eV     1   --> A_g            
     e(106 -106) =     14.66085  eV     1   --> A_u            
     e(107 -107) =     14.78231  eV     1   --> A_u            
     e(108 -108) =     14.78302  eV     1   --> A_u            
     e(109 -109) =     15.04814  eV     1   --> A_u            
     e(110 -110) =     15.17798  eV     1   --> A_g            
     e(111 -111) =     15.41636  eV     1   --> A_g            
     e(112 -112) =     15.41783  eV     1   --> A_g            
     e(113 -113) =     15.42904  eV     1   --> A_g            
     e(114 -114) =     15.56337  eV     1   --> A_g            
     e(115 -115) =     15.56527  eV     1   --> A_g            
     e(116 -116) =     15.82459  eV     1   --> A_u            
     e(117 -117) =     16.07851  eV     1   --> A_u            
     e(118 -118) =     16.32729  eV     1   --> A_u            
     e(119 -119) =     16.32804  eV     1   --> A_u            
     e(120 -120) =     16.38847  eV     1   --> A_u            
     e(121 -121) =     16.38935  eV     1   --> A_u            
     e(122 -122) =     16.59316  eV     1   --> A_g            
     e(123 -123) =     16.59390  eV     1   --> A_g            
     e(124 -124) =     16.66207  eV     1   --> A_g            
     e(125 -125) =     16.90015  eV     1   --> A_g            
     e(126 -126) =     16.92273  eV     1   --> A_g            
     e(127 -127) =     16.92402  eV     1   --> A_g            
     e(128 -128) =     17.79130  eV     1   --> A_u            
     e(129 -129) =     18.07232  eV     1   --> A_u            
     e(130 -130) =     18.07265  eV     1   --> A_u            
     e(131 -131) =     18.21413  eV     1   --> A_g            
     e(132 -132) =     18.33381  eV     1   --> A_g            
     e(133 -133) =     18.72263  eV     1   --> A_g            
     e(134 -134) =     18.72409  eV     1   --> A_g            
     e(135 -135) =     19.02327  eV     1   --> A_u            
     e(136 -136) =     19.02527  eV     1   --> A_u            
     e(137 -137) =     19.10013  eV     1   --> A_g            
     e(138 -138) =     19.10032  eV     1   --> A_g            
     e(139 -139) =     19.21660  eV     1   --> A_g            
     e(140 -140) =     19.31420  eV     1   --> A_u            
     e(141 -141) =     19.57710  eV     1   --> A_u            
     e(142 -142) =     20.13982  eV     1   --> A_g            
     e(143 -143) =     21.00765  eV     1   --> A_g            
     e(144 -144) =     21.00825  eV     1   --> A_g            
     e(145 -145) =     21.15191  eV     1   --> A_u            
     e(146 -146) =     21.17995  eV     1   --> A_u            
     e(147 -147) =     21.18036  eV     1   --> A_u            
     e(148 -148) =     21.28705  eV     1   --> A_u            
     e(149 -149) =     21.28873  eV     1   --> A_u            
     e(150 -150) =     21.34528  eV     1   --> A_u            
     e(151 -151) =     21.63726  eV     1   --> A_u            
     e(152 -152) =     21.71701  eV     1   --> A_g            
     e(153 -153) =     21.71808  eV     1   --> A_g            
     e(154 -154) =     21.86284  eV     1   --> A_g            
     e(155 -155) =     22.96991  eV     1   --> A_g            
     e(156 -156) =     23.63420  eV     1   --> A_g            
     e(157 -157) =     23.63464  eV     1   --> A_g            
     e(158 -158) =     23.87160  eV     1   --> A_u            
     e(159 -159) =     23.87321  eV     1   --> A_u            
     e(160 -160) =     24.02510  eV     1   --> A_g            
     e(161 -161) =     24.05502  eV     1   --> A_u            
     e(162 -162) =     24.05542  eV     1   --> A_u            
     e(163 -163) =     24.16660  eV     1   --> A_u            
     e(164 -164) =     25.04973  eV     1   --> A_g            
     e(165 -165) =     25.05059  eV     1   --> A_g            
     e(166 -166) =     25.61764  eV     1   --> A_u            
     e(167 -167) =     25.80643  eV     1   --> A_g            
     e(168 -168) =     26.16796  eV     1   --> A_u            
     e(169 -169) =     26.54256  eV     1   --> A_u            
     e(170 -170) =     26.54329  eV     1   --> A_u            
     e(171 -171) =     26.79334  eV     1   --> A_g            
     e(172 -172) =     27.25453  eV     1   --> A_u            
     e(173 -173) =     27.45959  eV     1   --> A_g            
     e(174 -174) =     27.46103  eV     1   --> A_g            
     e(175 -175) =     27.49615  eV     1   --> A_g            
     e(176 -176) =     27.49650  eV     1   --> A_g            
     e(177 -177) =     27.78818  eV     1   --> A_u            
     e(178 -178) =     27.78926  eV     1   --> A_u            
     e(179 -179) =     27.96895  eV     1   --> A_g            
     e(180 -180) =     28.42525  eV     1   --> A_u            
     e(181 -181) =     28.47103  eV     1   --> A_g            
     e(182 -182) =     28.56854  eV     1   --> A_u            
     e(183 -183) =     28.62317  eV     1   --> A_g            
     e(184 -184) =     29.05581  eV     1   --> A_g            
     e(185 -185) =     29.37673  eV     1   --> A_u            
     e(186 -186) =     29.45913  eV     1   --> A_u            
     e(187 -187) =     29.46042  eV     1   --> A_u            
     e(188 -188) =     29.55088  eV     1   --> A_u            
     e(189 -189) =     29.69898  eV     1   --> A_u            
     e(190 -190) =     29.70081  eV     1   --> A_u            
     e(191 -191) =     29.70447  eV     1   --> A_g            
     e(192 -192) =     29.70482  eV     1   --> A_g            
     e(193 -193) =     29.97232  eV     1   --> A_g            
     e(194 -194) =     29.97281  eV     1   --> A_g            
     e(195 -195) =     30.24304  eV     1   --> A_u            
     e(196 -196) =     30.24512  eV     1   --> A_u            
     e(197 -197) =     30.45899  eV     1   --> A_u            
     e(198 -198) =     30.52857  eV     1   --> A_g            
     e(199 -199) =     30.69906  eV     1   --> A_u            
     e(200 -200) =     30.77113  eV     1   --> A_g            

 **************************************************************************
 
     BANDS        :  22m54.88s CPU  28m48.04s WALL

 
   This run was terminated on:   2:30:30  16Jun2025            

=------------------------------------------------------------------------------=
   JOB DONE.
=------------------------------------------------------------------------------=
