
     Program PWSCF v.7.2 starts on 15Jun2025 at 21:11:53 

     This program is part of the open-source Quantum ESPRESSO suite
     for quantum simulation of materials; please cite
         "P. Giannozzi et al., J. Phys.:Condens. Matter 21 395502 (2009);
         "P. Giannozzi et al., J. Phys.:Condens. Matter 29 465901 (2017);
         "P. Giannozzi et al., J. Chem. Phys. 152 154105 (2020);
          URL http://www.quantum-espresso.org", 
     in publications or presentations arising from this work. More details at
     http://www.quantum-espresso.org/quote

     Parallel version (MPI), running on    64 processors

     MPI processes distributed on     1 nodes
     152210 MiB available memory on the printing compute node when the environment starts
 
     Reading input from MnBi2Te4.bands.in

     Current dimensions of program PWSCF are:
     Max number of different atomic species (ntypx) = 10
     Max number of k-points (npk) =  40000
     Max angular momentum in pseudopotentials (lmaxx) =  4

     Atomic positions and unit cell read from directory:
     ./tmp/MnBi2Te4.save/
     Atomic positions from file used, from input discarded
 
     file Mn.pbe-spn-kjpaw_psl.0.3.1.UPF: wavefunction(s)  3P 3D renormalized
     file Mn.pbe-spn-kjpaw_psl.0.3.1.UPF: wavefunction(s)  3P 3D renormalized
     file Bi.pbe-dn-kjpaw_psl.1.0.0.UPF: wavefunction(s)  6P 5D renormalized
     file Te.pbe-n-kjpaw_psl.1.0.0.UPF: wavefunction(s)  5S 5P renormalized
     Message from routine setup:
     using ibrav=0 with symmetry is DISCOURAGED, use correct ibrav instead
 
     R & G space division:  proc/nbgrp/npool/nimage =      64
     Subspace diagonalization in iterative solution of the eigenvalue problem:
     one sub-group per band group will be used
     scalapack distributed-memory algorithm (size of sub-group:  2*  2 procs)

 
     Parallelization info
     --------------------
     sticks:   dense  smooth     PW     G-vecs:    dense   smooth      PW
     Min         126     126     39                 2936     2936     509
     Max         127     127     40                 2938     2938     510
     Sum        8079    8079   2519               187971   187971   32619
 
     Using Slab Decomposition
 


     bravais-lattice index     =            0
     lattice parameter (alat)  =      51.7756  a.u.
     unit-cell volume          =    2994.5593 (a.u.)^3
     number of atoms/cell      =           14
     number of atomic types    =            4
     number of electrons       =       138.00
     number of Kohn-Sham states=          200
     kinetic-energy cutoff     =      60.0000  Ry
     charge density cutoff     =     240.0000  Ry
     Exchange-correlation= SLA  PW   PBX  PBC
                           (   1   4   3   4   0   0   0)

     celldm(1)=  51.775623  celldm(2)=   0.000000  celldm(3)=   0.000000
     celldm(4)=   0.000000  celldm(5)=   0.000000  celldm(6)=   0.000000

     crystal axes: (cart. coord. in units of alat)
               a(1) = (   0.157674   0.000000   0.987491 )  
               a(2) = (   0.078341   0.136835   0.987491 )  
               a(3) = (   0.000000   0.000000   1.000000 )  

     reciprocal axes: (cart. coord. in units 2 pi/alat)
               b(1) = (  6.342202 -3.631040  0.000000 )  
               b(2) = (  0.000000  7.308076  0.000000 )  
               b(3) = ( -6.262868 -3.631040  1.000000 )  


     PseudoPot. # 1 for Mn read from file:
     ./Mn.pbe-spn-kjpaw_psl.0.3.1.UPF
     MD5 check sum: 872d0d815bb0ce6e24cff79ea4d0ae31
     Pseudo is Projector augmented-wave + core cor, Zval = 15.0
     Generated using &quot;atomic&quot; code by A. Dal Corso  v.6.2.2
     Shape of augmentation charge: PSQ
     Using radial grid of 1187 points,  6 beta functions with: 
                l(1) =   0
                l(2) =   0
                l(3) =   1
                l(4) =   1
                l(5) =   2
                l(6) =   2
     Q(r) pseudized with 0 coefficients 


     PseudoPot. # 2 for Mn read from file:
     ./Mn.pbe-spn-kjpaw_psl.0.3.1.UPF
     MD5 check sum: 872d0d815bb0ce6e24cff79ea4d0ae31
     Pseudo is Projector augmented-wave + core cor, Zval = 15.0
     Generated using &quot;atomic&quot; code by A. Dal Corso  v.6.2.2
     Shape of augmentation charge: PSQ
     Using radial grid of 1187 points,  6 beta functions with: 
                l(1) =   0
                l(2) =   0
                l(3) =   1
                l(4) =   1
                l(5) =   2
                l(6) =   2
     Q(r) pseudized with 0 coefficients 


     PseudoPot. # 3 for Bi read from file:
     ./Bi.pbe-dn-kjpaw_psl.1.0.0.UPF
     MD5 check sum: 29baffecec4108f41a587bcf9a453472
     Pseudo is Projector augmented-wave + core cor, Zval = 15.0
     Generated using &quot;atomic&quot; code by A. Dal Corso  v.6.2.2
     Shape of augmentation charge: PSQ
     Using radial grid of 1283 points,  6 beta functions with: 
                l(1) =   0
                l(2) =   0
                l(3) =   1
                l(4) =   1
                l(5) =   2
                l(6) =   2
     Q(r) pseudized with 0 coefficients 


     PseudoPot. # 4 for Te read from file:
     ./Te.pbe-n-kjpaw_psl.1.0.0.UPF
     MD5 check sum: 960f80ef2db6fd2ef753b89a550c1479
     Pseudo is Projector augmented-wave + core cor, Zval =  6.0
     Generated using &quot;atomic&quot; code by A. Dal Corso  v.6.3
     Shape of augmentation charge: PSQ
     Using radial grid of 1245 points,  6 beta functions with: 
                l(1) =   0
                l(2) =   0
                l(3) =   1
                l(4) =   1
                l(5) =   2
                l(6) =   2
     Q(r) pseudized with 0 coefficients 


     atomic species   valence    mass     pseudopotential
        Mn1           15.00    54.93800     Mn( 1.00)
        Mn2           15.00    54.93800     Mn( 1.00)
        Bi            15.00   208.98000     Bi( 1.00)
        Te             6.00   127.60300     Te( 1.00)

     Starting magnetic structure 
     atomic species   magnetization
        Mn1          0.333
        Mn2         -0.333
        Bi           0.000
        Te           0.000

      2 Sym. Ops., with inversion, found


                                    s                        frac. trans.

      isym =  1     identity                                     

 cryst.   s( 1) = (     1          0          0      )
                  (     0          1          0      )
                  (     0          0          1      )

 cart.    s( 1) = (  1.0000000  0.0000000  0.0000000 )
                  (  0.0000000  1.0000000  0.0000000 )
                  (  0.0000000  0.0000000  1.0000000 )


      isym =  2     inversion                                    

 cryst.   s( 2) = (    -1          0          0      )
                  (     0         -1          0      )
                  (     0          0         -1      )

 cart.    s( 2) = ( -1.0000000  0.0000000  0.0000000 )
                  (  0.0000000 -1.0000000  0.0000000 )
                  (  0.0000000  0.0000000 -1.0000000 )


   Cartesian axes

     site n.     atom                  positions (alat units)
         1           Mn1 tau(   1) = (   0.0000000   0.0000000   0.0000000  )
         2           Mn2 tau(   2) = (   0.1180074   0.0684175   1.4874912  )
         3           Bi  tau(   3) = (   0.0501413   0.0290706   0.6320350  )
         4           Bi  tau(   4) = (   0.1681487   0.0974880   2.1195262  )
         5           Bi  tau(   5) = (   0.0678660   0.0393469   0.8554562  )
         6           Bi  tau(   6) = (   0.1858734   0.1077643   2.3429474  )
         7           Te  tau(   7) = (   0.0157375   0.0091242   0.1983718  )
         8           Te  tau(   8) = (   0.1337448   0.0775416   1.6858631  )
         9           Te  tau(   9) = (   0.1022699   0.0592933   1.2891194  )
        10           Te  tau(  10) = (   0.2202773   0.1277108   2.7766106  )
        11           Te  tau(  11) = (   0.0347012   0.0201188   0.4374117  )
        12           Te  tau(  12) = (   0.1527086   0.0885363   1.9249029  )
        13           Te  tau(  13) = (   0.0833061   0.0482986   1.0500796  )
        14           Te  tau(  14) = (   0.2013135   0.1167161   2.5375708  )

   Crystallographic axes

     site n.     atom                  positions (cryst. coord.)
         1           Mn1 tau(   1) = (  0.0000000  0.0000000  0.0000000  )
         2           Mn2 tau(   2) = (  0.5000000  0.5000000  0.5000000  )
         3           Bi  tau(   3) = (  0.2124500  0.2124500  0.2124500  )
         4           Bi  tau(   4) = (  0.7124500  0.7124500  0.7124500  )
         5           Bi  tau(   5) = (  0.2875500  0.2875500  0.2875500  )
         6           Bi  tau(   6) = (  0.7875500  0.7875500  0.7875500  )
         7           Te  tau(   7) = (  0.0666800  0.0666800  0.0666800  )
         8           Te  tau(   8) = (  0.5666800  0.5666800  0.5666800  )
         9           Te  tau(   9) = (  0.4333200  0.4333200  0.4333200  )
        10           Te  tau(  10) = (  0.9333200  0.9333200  0.9333200  )
        11           Te  tau(  11) = (  0.1470300  0.1470300  0.1470300  )
        12           Te  tau(  12) = (  0.6470300  0.6470300  0.6470300  )
        13           Te  tau(  13) = (  0.3529700  0.3529700  0.3529700  )
        14           Te  tau(  14) = (  0.8529700  0.8529700  0.8529700  )

     number of k points=   151  Marzari-Vanderbilt smearing, width (Ry)=  0.0200
                       cart. coord. in units 2pi/alat
        k(    1) = (   0.0000000   0.0000000   0.0000000), wk =   0.0066225
        k(    2) = (   0.1260507   0.0730808  -0.0100000), wk =   0.0066225
        k(    3) = (   0.2521014   0.1461615  -0.0200000), wk =   0.0066225
        k(    4) = (   0.3781521   0.2192423  -0.0300000), wk =   0.0066225
        k(    5) = (   0.5042028   0.2923230  -0.0400000), wk =   0.0066225
        k(    6) = (   0.6302535   0.3654038  -0.0500000), wk =   0.0066225
        k(    7) = (   0.7563042   0.4384846  -0.0600000), wk =   0.0066225
        k(    8) = (   0.8823549   0.5115653  -0.0700000), wk =   0.0066225
        k(    9) = (   1.0084056   0.5846461  -0.0800000), wk =   0.0066225
        k(   10) = (   1.1344563   0.6577268  -0.0900000), wk =   0.0066225
        k(   11) = (   1.2605070   0.7308076  -0.1000000), wk =   0.0066225
        k(   12) = (   1.3865577   0.8038884  -0.1100000), wk =   0.0066225
        k(   13) = (   1.5126084   0.8769691  -0.1200000), wk =   0.0066225
        k(   14) = (   1.6386591   0.9500499  -0.1300000), wk =   0.0066225
        k(   15) = (   1.7647098   1.0231306  -0.1400000), wk =   0.0066225
        k(   16) = (   1.8907605   1.0962114  -0.1500000), wk =   0.0066225
        k(   17) = (   2.0168112   1.1692922  -0.1600000), wk =   0.0066225
        k(   18) = (   2.1428619   1.2423729  -0.1700000), wk =   0.0066225
        k(   19) = (   2.2689126   1.3154537  -0.1800000), wk =   0.0066225
        k(   20) = (   2.3949633   1.3885344  -0.1900000), wk =   0.0066225
        k(   21) = (   2.5210140   1.4616152  -0.2000000), wk =   0.0066225
        k(   22) = (   2.6470647   1.5346960  -0.2100000), wk =   0.0066225
        k(   23) = (   2.7731154   1.6077767  -0.2200000), wk =   0.0066225
        k(   24) = (   2.8991661   1.6808575  -0.2300000), wk =   0.0066225
        k(   25) = (   3.0252168   1.7539382  -0.2400000), wk =   0.0066225
        k(   26) = (   3.1512675   1.8270190  -0.2500000), wk =   0.0066225
        k(   27) = (   3.2773182   1.9000997  -0.2600000), wk =   0.0066225
        k(   28) = (   3.4033689   1.9731805  -0.2700000), wk =   0.0066225
        k(   29) = (   3.5294196   2.0462613  -0.2800000), wk =   0.0066225
        k(   30) = (   3.6554703   2.1193420  -0.2900000), wk =   0.0066225
        k(   31) = (   3.7815210   2.1924228  -0.3000000), wk =   0.0066225
        k(   32) = (   3.9075717   2.2655035  -0.3100000), wk =   0.0066225
        k(   33) = (   4.0336224   2.3385843  -0.3200000), wk =   0.0066225
        k(   34) = (   4.1596731   2.4116651  -0.3300000), wk =   0.0066225
        k(   35) = (   4.2857237   2.4847458  -0.3400000), wk =   0.0066225
        k(   36) = (   4.4117744   2.5578266  -0.3500000), wk =   0.0066225
        k(   37) = (   4.5378251   2.6309073  -0.3600000), wk =   0.0066225
        k(   38) = (   4.6638758   2.7039881  -0.3700000), wk =   0.0066225
        k(   39) = (   4.7899265   2.7770689  -0.3800000), wk =   0.0066225
        k(   40) = (   4.9159772   2.8501496  -0.3900000), wk =   0.0066225
        k(   41) = (   5.0420279   2.9232304  -0.4000000), wk =   0.0066225
        k(   42) = (   5.1680786   2.9963111  -0.4100000), wk =   0.0066225
        k(   43) = (   5.2941293   3.0693919  -0.4200000), wk =   0.0066225
        k(   44) = (   5.4201800   3.1424727  -0.4300000), wk =   0.0066225
        k(   45) = (   5.5462307   3.2155534  -0.4400000), wk =   0.0066225
        k(   46) = (   5.6722814   3.2886342  -0.4500000), wk =   0.0066225
        k(   47) = (   5.7983321   3.3617149  -0.4600000), wk =   0.0066225
        k(   48) = (   5.9243828   3.4347957  -0.4700000), wk =   0.0066225
        k(   49) = (   6.0504335   3.5078765  -0.4800000), wk =   0.0066225
        k(   50) = (   6.1764842   3.5809572  -0.4900000), wk =   0.0066225
        k(   51) = (   6.3025349   3.6540380  -0.5000000), wk =   0.0066225
        k(   52) = (   6.2391129   3.6903484  -0.5000000), wk =   0.0066225
        k(   53) = (   6.1756909   3.7266588  -0.5000000), wk =   0.0066225
        k(   54) = (   6.1122689   3.7629692  -0.5000000), wk =   0.0066225
        k(   55) = (   6.0488469   3.7992796  -0.5000000), wk =   0.0066225
        k(   56) = (   5.9854249   3.8355900  -0.5000000), wk =   0.0066225
        k(   57) = (   5.9220028   3.8719004  -0.5000000), wk =   0.0066225
        k(   58) = (   5.8585808   3.9082108  -0.5000000), wk =   0.0066225
        k(   59) = (   5.7951588   3.9445212  -0.5000000), wk =   0.0066225
        k(   60) = (   5.7317368   3.9808316  -0.5000000), wk =   0.0066225
        k(   61) = (   5.6683148   4.0171420  -0.5000000), wk =   0.0066225
        k(   62) = (   5.6048928   4.0534524  -0.5000000), wk =   0.0066225
        k(   63) = (   5.5414707   4.0897628  -0.5000000), wk =   0.0066225
        k(   64) = (   5.4780487   4.1260732  -0.5000000), wk =   0.0066225
        k(   65) = (   5.4146267   4.1623836  -0.5000000), wk =   0.0066225
        k(   66) = (   5.3512047   4.1986940  -0.5000000), wk =   0.0066225
        k(   67) = (   5.2877827   4.2350044  -0.5000000), wk =   0.0066225
        k(   68) = (   5.2243607   4.2713148  -0.5000000), wk =   0.0066225
        k(   69) = (   5.1609387   4.3076252  -0.5000000), wk =   0.0066225
        k(   70) = (   5.0975166   4.3439356  -0.5000000), wk =   0.0066225
        k(   71) = (   5.0340946   4.3802461  -0.5000000), wk =   0.0066225
        k(   72) = (   4.9706726   4.4165565  -0.5000000), wk =   0.0066225
        k(   73) = (   4.9072506   4.4528669  -0.5000000), wk =   0.0066225
        k(   74) = (   4.8438286   4.4891773  -0.5000000), wk =   0.0066225
        k(   75) = (   4.7804066   4.5254877  -0.5000000), wk =   0.0066225
        k(   76) = (   4.7169845   4.5617981  -0.5000000), wk =   0.0066225
        k(   77) = (   4.6535625   4.5981085  -0.5000000), wk =   0.0066225
        k(   78) = (   4.5901405   4.6344189  -0.5000000), wk =   0.0066225
        k(   79) = (   4.5267185   4.6707293  -0.5000000), wk =   0.0066225
        k(   80) = (   4.4632965   4.7070397  -0.5000000), wk =   0.0066225
        k(   81) = (   4.3998745   4.7433501  -0.5000000), wk =   0.0066225
        k(   82) = (   4.3364525   4.7796605  -0.5000000), wk =   0.0066225
        k(   83) = (   4.2730304   4.8159709  -0.5000000), wk =   0.0066225
        k(   84) = (   4.2096084   4.8522813  -0.5000000), wk =   0.0066225
        k(   85) = (   4.1461864   4.8885917  -0.5000000), wk =   0.0066225
        k(   86) = (   4.0827644   4.9249021  -0.5000000), wk =   0.0066225
        k(   87) = (   4.0193424   4.9612125  -0.5000000), wk =   0.0066225
        k(   88) = (   3.9559204   4.9975229  -0.5000000), wk =   0.0066225
        k(   89) = (   3.8924984   5.0338333  -0.5000000), wk =   0.0066225
        k(   90) = (   3.8290763   5.0701437  -0.5000000), wk =   0.0066225
        k(   91) = (   3.7656543   5.1064541  -0.5000000), wk =   0.0066225
        k(   92) = (   3.7022323   5.1427645  -0.5000000), wk =   0.0066225
        k(   93) = (   3.6388103   5.1790749  -0.5000000), wk =   0.0066225
        k(   94) = (   3.5753883   5.2153853  -0.5000000), wk =   0.0066225
        k(   95) = (   3.5119663   5.2516957  -0.5000000), wk =   0.0066225
        k(   96) = (   3.4485442   5.2880061  -0.5000000), wk =   0.0066225
        k(   97) = (   3.3851222   5.3243165  -0.5000000), wk =   0.0066225
        k(   98) = (   3.3217002   5.3606270  -0.5000000), wk =   0.0066225
        k(   99) = (   3.2582782   5.3969374  -0.5000000), wk =   0.0066225
        k(  100) = (   3.1948562   5.4332478  -0.5000000), wk =   0.0066225
        k(  101) = (   3.1314342   5.4695582  -0.5000000), wk =   0.0066225
        k(  102) = (   3.0688055   5.3601670  -0.4900000), wk =   0.0066225
        k(  103) = (   3.0061768   5.2507758  -0.4800000), wk =   0.0066225
        k(  104) = (   2.9435481   5.1413847  -0.4700000), wk =   0.0066225
        k(  105) = (   2.8809194   5.0319935  -0.4600000), wk =   0.0066225
        k(  106) = (   2.8182908   4.9226023  -0.4500000), wk =   0.0066225
        k(  107) = (   2.7556621   4.8132112  -0.4400000), wk =   0.0066225
        k(  108) = (   2.6930334   4.7038200  -0.4300000), wk =   0.0066225
        k(  109) = (   2.6304047   4.5944289  -0.4200000), wk =   0.0066225
        k(  110) = (   2.5677760   4.4850377  -0.4100000), wk =   0.0066225
        k(  111) = (   2.5051473   4.3756465  -0.4000000), wk =   0.0066225
        k(  112) = (   2.4425187   4.2662554  -0.3900000), wk =   0.0066225
        k(  113) = (   2.3798900   4.1568642  -0.3800000), wk =   0.0066225
        k(  114) = (   2.3172613   4.0474730  -0.3700000), wk =   0.0066225
        k(  115) = (   2.2546326   3.9380819  -0.3600000), wk =   0.0066225
        k(  116) = (   2.1920039   3.8286907  -0.3500000), wk =   0.0066225
        k(  117) = (   2.1293752   3.7192996  -0.3400000), wk =   0.0066225
        k(  118) = (   2.0667466   3.6099084  -0.3300000), wk =   0.0066225
        k(  119) = (   2.0041179   3.5005172  -0.3200000), wk =   0.0066225
        k(  120) = (   1.9414892   3.3911261  -0.3100000), wk =   0.0066225
        k(  121) = (   1.8788605   3.2817349  -0.3000000), wk =   0.0066225
        k(  122) = (   1.8162318   3.1723437  -0.2900000), wk =   0.0066225
        k(  123) = (   1.7536031   3.0629526  -0.2800000), wk =   0.0066225
        k(  124) = (   1.6909745   2.9535614  -0.2700000), wk =   0.0066225
        k(  125) = (   1.6283458   2.8441702  -0.2600000), wk =   0.0066225
        k(  126) = (   1.5657171   2.7347791  -0.2500000), wk =   0.0066225
        k(  127) = (   1.5030884   2.6253879  -0.2400000), wk =   0.0066225
        k(  128) = (   1.4404597   2.5159968  -0.2300000), wk =   0.0066225
        k(  129) = (   1.3778310   2.4066056  -0.2200000), wk =   0.0066225
        k(  130) = (   1.3152024   2.2972144  -0.2100000), wk =   0.0066225
        k(  131) = (   1.2525737   2.1878233  -0.2000000), wk =   0.0066225
        k(  132) = (   1.1899450   2.0784321  -0.1900000), wk =   0.0066225
        k(  133) = (   1.1273163   1.9690409  -0.1800000), wk =   0.0066225
        k(  134) = (   1.0646876   1.8596498  -0.1700000), wk =   0.0066225
        k(  135) = (   1.0020589   1.7502586  -0.1600000), wk =   0.0066225
        k(  136) = (   0.9394303   1.6408674  -0.1500000), wk =   0.0066225
        k(  137) = (   0.8768016   1.5314763  -0.1400000), wk =   0.0066225
        k(  138) = (   0.8141729   1.4220851  -0.1300000), wk =   0.0066225
        k(  139) = (   0.7515442   1.3126940  -0.1200000), wk =   0.0066225
        k(  140) = (   0.6889155   1.2033028  -0.1100000), wk =   0.0066225
        k(  141) = (   0.6262868   1.0939116  -0.1000000), wk =   0.0066225
        k(  142) = (   0.5636582   0.9845205  -0.0900000), wk =   0.0066225
        k(  143) = (   0.5010295   0.8751293  -0.0800000), wk =   0.0066225
        k(  144) = (   0.4384008   0.7657381  -0.0700000), wk =   0.0066225
        k(  145) = (   0.3757721   0.6563470  -0.0600000), wk =   0.0066225
        k(  146) = (   0.3131434   0.5469558  -0.0500000), wk =   0.0066225
        k(  147) = (   0.2505147   0.4375647  -0.0400000), wk =   0.0066225
        k(  148) = (   0.1878861   0.3281735  -0.0300000), wk =   0.0066225
        k(  149) = (   0.1252574   0.2187823  -0.0200000), wk =   0.0066225
        k(  150) = (   0.0626287   0.1093912  -0.0100000), wk =   0.0066225
        k(  151) = (   0.0000000   0.0000000   0.0000000), wk =   0.0066225

                       cryst. coord.
        k(    1) = (   0.0000000   0.0000000   0.0000000), wk =   0.0066225
        k(    2) = (   0.0100000   0.0100000  -0.0100000), wk =   0.0066225
        k(    3) = (   0.0200000   0.0200000  -0.0200000), wk =   0.0066225
        k(    4) = (   0.0300000   0.0300000  -0.0300000), wk =   0.0066225
        k(    5) = (   0.0400000   0.0400000  -0.0400000), wk =   0.0066225
        k(    6) = (   0.0500000   0.0500000  -0.0500000), wk =   0.0066225
        k(    7) = (   0.0600000   0.0600000  -0.0600000), wk =   0.0066225
        k(    8) = (   0.0700000   0.0700000  -0.0700000), wk =   0.0066225
        k(    9) = (   0.0800000   0.0800000  -0.0800000), wk =   0.0066225
        k(   10) = (   0.0900000   0.0900000  -0.0900000), wk =   0.0066225
        k(   11) = (   0.1000000   0.1000000  -0.1000000), wk =   0.0066225
        k(   12) = (   0.1100000   0.1100000  -0.1100000), wk =   0.0066225
        k(   13) = (   0.1200000   0.1200000  -0.1200000), wk =   0.0066225
        k(   14) = (   0.1300000   0.1300000  -0.1300000), wk =   0.0066225
        k(   15) = (   0.1400000   0.1400000  -0.1400000), wk =   0.0066225
        k(   16) = (   0.1500000   0.1500000  -0.1500000), wk =   0.0066225
        k(   17) = (   0.1600000   0.1600000  -0.1600000), wk =   0.0066225
        k(   18) = (   0.1700000   0.1700000  -0.1700000), wk =   0.0066225
        k(   19) = (   0.1800000   0.1800000  -0.1800000), wk =   0.0066225
        k(   20) = (   0.1900000   0.1900000  -0.1900000), wk =   0.0066225
        k(   21) = (   0.2000000   0.2000000  -0.2000000), wk =   0.0066225
        k(   22) = (   0.2100000   0.2100000  -0.2100000), wk =   0.0066225
        k(   23) = (   0.2200000   0.2200000  -0.2200000), wk =   0.0066225
        k(   24) = (   0.2300000   0.2300000  -0.2300000), wk =   0.0066225
        k(   25) = (   0.2400000   0.2400000  -0.2400000), wk =   0.0066225
        k(   26) = (   0.2500000   0.2500000  -0.2500000), wk =   0.0066225
        k(   27) = (   0.2600000   0.2600000  -0.2600000), wk =   0.0066225
        k(   28) = (   0.2700000   0.2700000  -0.2700000), wk =   0.0066225
        k(   29) = (   0.2800000   0.2800000  -0.2800000), wk =   0.0066225
        k(   30) = (   0.2900000   0.2900000  -0.2900000), wk =   0.0066225
        k(   31) = (   0.3000000   0.3000000  -0.3000000), wk =   0.0066225
        k(   32) = (   0.3100000   0.3100000  -0.3100000), wk =   0.0066225
        k(   33) = (   0.3200000   0.3200000  -0.3200000), wk =   0.0066225
        k(   34) = (   0.3300000   0.3300000  -0.3300000), wk =   0.0066225
        k(   35) = (   0.3400000   0.3400000  -0.3400000), wk =   0.0066225
        k(   36) = (   0.3500000   0.3500000  -0.3500000), wk =   0.0066225
        k(   37) = (   0.3600000   0.3600000  -0.3600000), wk =   0.0066225
        k(   38) = (   0.3700000   0.3700000  -0.3700000), wk =   0.0066225
        k(   39) = (   0.3800000   0.3800000  -0.3800000), wk =   0.0066225
        k(   40) = (   0.3900000   0.3900000  -0.3900000), wk =   0.0066225
        k(   41) = (   0.4000000   0.4000000  -0.4000000), wk =   0.0066225
        k(   42) = (   0.4100000   0.4100000  -0.4100000), wk =   0.0066225
        k(   43) = (   0.4200000   0.4200000  -0.4200000), wk =   0.0066225
        k(   44) = (   0.4300000   0.4300000  -0.4300000), wk =   0.0066225
        k(   45) = (   0.4400000   0.4400000  -0.4400000), wk =   0.0066225
        k(   46) = (   0.4500000   0.4500000  -0.4500000), wk =   0.0066225
        k(   47) = (   0.4600000   0.4600000  -0.4600000), wk =   0.0066225
        k(   48) = (   0.4700000   0.4700000  -0.4700000), wk =   0.0066225
        k(   49) = (   0.4800000   0.4800000  -0.4800000), wk =   0.0066225
        k(   50) = (   0.4900000   0.4900000  -0.4900000), wk =   0.0066225
        k(   51) = (   0.5000000   0.5000000  -0.5000000), wk =   0.0066225
        k(   52) = (   0.4900000   0.5000000  -0.5000000), wk =   0.0066225
        k(   53) = (   0.4800000   0.5000000  -0.5000000), wk =   0.0066225
        k(   54) = (   0.4700000   0.5000000  -0.5000000), wk =   0.0066225
        k(   55) = (   0.4600000   0.5000000  -0.5000000), wk =   0.0066225
        k(   56) = (   0.4500000   0.5000000  -0.5000000), wk =   0.0066225
        k(   57) = (   0.4400000   0.5000000  -0.5000000), wk =   0.0066225
        k(   58) = (   0.4300000   0.5000000  -0.5000000), wk =   0.0066225
        k(   59) = (   0.4200000   0.5000000  -0.5000000), wk =   0.0066225
        k(   60) = (   0.4100000   0.5000000  -0.5000000), wk =   0.0066225
        k(   61) = (   0.4000000   0.5000000  -0.5000000), wk =   0.0066225
        k(   62) = (   0.3900000   0.5000000  -0.5000000), wk =   0.0066225
        k(   63) = (   0.3800000   0.5000000  -0.5000000), wk =   0.0066225
        k(   64) = (   0.3700000   0.5000000  -0.5000000), wk =   0.0066225
        k(   65) = (   0.3600000   0.5000000  -0.5000000), wk =   0.0066225
        k(   66) = (   0.3500000   0.5000000  -0.5000000), wk =   0.0066225
        k(   67) = (   0.3400000   0.5000000  -0.5000000), wk =   0.0066225
        k(   68) = (   0.3300000   0.5000000  -0.5000000), wk =   0.0066225
        k(   69) = (   0.3200000   0.5000000  -0.5000000), wk =   0.0066225
        k(   70) = (   0.3100000   0.5000000  -0.5000000), wk =   0.0066225
        k(   71) = (   0.3000000   0.5000000  -0.5000000), wk =   0.0066225
        k(   72) = (   0.2900000   0.5000000  -0.5000000), wk =   0.0066225
        k(   73) = (   0.2800000   0.5000000  -0.5000000), wk =   0.0066225
        k(   74) = (   0.2700000   0.5000000  -0.5000000), wk =   0.0066225
        k(   75) = (   0.2600000   0.5000000  -0.5000000), wk =   0.0066225
        k(   76) = (   0.2500000   0.5000000  -0.5000000), wk =   0.0066225
        k(   77) = (   0.2400000   0.5000000  -0.5000000), wk =   0.0066225
        k(   78) = (   0.2300000   0.5000000  -0.5000000), wk =   0.0066225
        k(   79) = (   0.2200000   0.5000000  -0.5000000), wk =   0.0066225
        k(   80) = (   0.2100000   0.5000000  -0.5000000), wk =   0.0066225
        k(   81) = (   0.2000000   0.5000000  -0.5000000), wk =   0.0066225
        k(   82) = (   0.1900000   0.5000000  -0.5000000), wk =   0.0066225
        k(   83) = (   0.1800000   0.5000000  -0.5000000), wk =   0.0066225
        k(   84) = (   0.1700000   0.5000000  -0.5000000), wk =   0.0066225
        k(   85) = (   0.1600000   0.5000000  -0.5000000), wk =   0.0066225
        k(   86) = (   0.1500000   0.5000000  -0.5000000), wk =   0.0066225
        k(   87) = (   0.1400000   0.5000000  -0.5000000), wk =   0.0066225
        k(   88) = (   0.1300000   0.5000000  -0.5000000), wk =   0.0066225
        k(   89) = (   0.1200000   0.5000000  -0.5000000), wk =   0.0066225
        k(   90) = (   0.1100000   0.5000000  -0.5000000), wk =   0.0066225
        k(   91) = (   0.1000000   0.5000000  -0.5000000), wk =   0.0066225
        k(   92) = (   0.0900000   0.5000000  -0.5000000), wk =   0.0066225
        k(   93) = (   0.0800000   0.5000000  -0.5000000), wk =   0.0066225
        k(   94) = (   0.0700000   0.5000000  -0.5000000), wk =   0.0066225
        k(   95) = (   0.0600000   0.5000000  -0.5000000), wk =   0.0066225
        k(   96) = (   0.0500000   0.5000000  -0.5000000), wk =   0.0066225
        k(   97) = (   0.0400000   0.5000000  -0.5000000), wk =   0.0066225
        k(   98) = (   0.0300000   0.5000000  -0.5000000), wk =   0.0066225
        k(   99) = (   0.0200000   0.5000000  -0.5000000), wk =   0.0066225
        k(  100) = (   0.0100000   0.5000000  -0.5000000), wk =   0.0066225
        k(  101) = (   0.0000000   0.5000000  -0.5000000), wk =   0.0066225
        k(  102) = (   0.0000000   0.4900000  -0.4900000), wk =   0.0066225
        k(  103) = (  -0.0000000   0.4800000  -0.4800000), wk =   0.0066225
        k(  104) = (   0.0000000   0.4700000  -0.4700000), wk =   0.0066225
        k(  105) = (  -0.0000000   0.4600000  -0.4600000), wk =   0.0066225
        k(  106) = (   0.0000000   0.4500000  -0.4500000), wk =   0.0066225
        k(  107) = (   0.0000000   0.4400000  -0.4400000), wk =   0.0066225
        k(  108) = (   0.0000000   0.4300000  -0.4300000), wk =   0.0066225
        k(  109) = (   0.0000000   0.4200000  -0.4200000), wk =   0.0066225
        k(  110) = (  -0.0000000   0.4100000  -0.4100000), wk =   0.0066225
        k(  111) = (  -0.0000000   0.4000000  -0.4000000), wk =   0.0066225
        k(  112) = (  -0.0000000   0.3900000  -0.3900000), wk =   0.0066225
        k(  113) = (   0.0000000   0.3800000  -0.3800000), wk =   0.0066225
        k(  114) = (   0.0000000   0.3700000  -0.3700000), wk =   0.0066225
        k(  115) = (   0.0000000   0.3600000  -0.3600000), wk =   0.0066225
        k(  116) = (  -0.0000000   0.3500000  -0.3500000), wk =   0.0066225
        k(  117) = (   0.0000000   0.3400000  -0.3400000), wk =   0.0066225
        k(  118) = (   0.0000000   0.3300000  -0.3300000), wk =   0.0066225
        k(  119) = (  -0.0000000   0.3200000  -0.3200000), wk =   0.0066225
        k(  120) = (   0.0000000   0.3100000  -0.3100000), wk =   0.0066225
        k(  121) = (   0.0000000   0.3000000  -0.3000000), wk =   0.0066225
        k(  122) = (  -0.0000000   0.2900000  -0.2900000), wk =   0.0066225
        k(  123) = (   0.0000000   0.2800000  -0.2800000), wk =   0.0066225
        k(  124) = (   0.0000000   0.2700000  -0.2700000), wk =   0.0066225
        k(  125) = (  -0.0000000   0.2600000  -0.2600000), wk =   0.0066225
        k(  126) = (   0.0000000   0.2500000  -0.2500000), wk =   0.0066225
        k(  127) = (  -0.0000000   0.2400000  -0.2400000), wk =   0.0066225
        k(  128) = (  -0.0000000   0.2300000  -0.2300000), wk =   0.0066225
        k(  129) = (  -0.0000000   0.2200000  -0.2200000), wk =   0.0066225
        k(  130) = (  -0.0000000   0.2100000  -0.2100000), wk =   0.0066225
        k(  131) = (  -0.0000000   0.2000000  -0.2000000), wk =   0.0066225
        k(  132) = (   0.0000000   0.1900000  -0.1900000), wk =   0.0066225
        k(  133) = (   0.0000000   0.1800000  -0.1800000), wk =   0.0066225
        k(  134) = (   0.0000000   0.1700000  -0.1700000), wk =   0.0066225
        k(  135) = (  -0.0000000   0.1600000  -0.1600000), wk =   0.0066225
        k(  136) = (   0.0000000   0.1500000  -0.1500000), wk =   0.0066225
        k(  137) = (   0.0000000   0.1400000  -0.1400000), wk =   0.0066225
        k(  138) = (  -0.0000000   0.1300000  -0.1300000), wk =   0.0066225
        k(  139) = (  -0.0000000   0.1200000  -0.1200000), wk =   0.0066225
        k(  140) = (  -0.0000000   0.1100000  -0.1100000), wk =   0.0066225
        k(  141) = (   0.0000000   0.1000000  -0.1000000), wk =   0.0066225
        k(  142) = (   0.0000000   0.0900000  -0.0900000), wk =   0.0066225
        k(  143) = (   0.0000000   0.0800000  -0.0800000), wk =   0.0066225
        k(  144) = (   0.0000000   0.0700000  -0.0700000), wk =   0.0066225
        k(  145) = (  -0.0000000   0.0600000  -0.0600000), wk =   0.0066225
        k(  146) = (   0.0000000   0.0500000  -0.0500000), wk =   0.0066225
        k(  147) = (  -0.0000000   0.0400000  -0.0400000), wk =   0.0066225
        k(  148) = (  -0.0000000   0.0300000  -0.0300000), wk =   0.0066225
        k(  149) = (  -0.0000000   0.0200000  -0.0200000), wk =   0.0066225
        k(  150) = (  -0.0000000   0.0100000  -0.0100000), wk =   0.0066225
        k(  151) = (   0.0000000   0.0000000   0.0000000), wk =   0.0066225

     Dense  grid:   187971 G-vectors     FFT dimensions: ( 256, 256, 256)

     Dynamical RAM for                 wfc:       1.12 MB

     Dynamical RAM for     wfc (w. buffer):       1.12 MB

     Dynamical RAM for           str. fact:       0.18 MB

     Dynamical RAM for           local pot:       0.00 MB

     Dynamical RAM for          nlocal pot:       1.41 MB

     Dynamical RAM for                qrad:       4.98 MB

     Dynamical RAM for          rho,v,vnew:      12.27 MB

     Dynamical RAM for           G-vectors:       0.19 MB

     Dynamical RAM for          h,s,v(r/c):       1.83 MB

     Dynamical RAM for          <psi|beta>:       0.77 MB

     Dynamical RAM for                 psi:       2.24 MB

     Dynamical RAM for                hpsi:       2.24 MB

     Dynamical RAM for                spsi:       2.24 MB

     Dynamical RAM for      wfcinit/wfcrot:       3.16 MB

     Dynamical RAM for           addusdens:       8.74 MB

     Estimated static dynamical RAM per process >      32.37 MB

     Estimated max dynamical RAM per process >      41.69 MB

     Estimated total dynamical RAM >       2.61 GB

     Check: negative core charge=   -0.000015
     Generating pointlists ...
     new r_m :   0.0448 (alat units)  2.3181 (a.u.) for type    1
     new r_m :   0.0448 (alat units)  2.3181 (a.u.) for type    2
     new r_m :   0.0456 (alat units)  2.3625 (a.u.) for type    3
     new r_m :   0.0448 (alat units)  2.3181 (a.u.) for type    4

     The potential is recalculated from file :
     ./tmp/MnBi2Te4.save/charge-density

     Starting wfcs are   88 randomized atomic wfcs +  112 random wfcs
     Checking if some PAW data can be deallocated... 
       PAW data deallocated on   59 nodes for type:  1
       PAW data deallocated on   59 nodes for type:  2
       PAW data deallocated on   44 nodes for type:  3
       PAW data deallocated on   30 nodes for type:  4

     Band Structure Calculation
     Davidson diagonalization with overlap

     Computing kpt #:     1  of   302
     total cpu time spent up to now is       53.2 secs

     Computing kpt #:     2  of   302
     total cpu time spent up to now is       94.8 secs

     Computing kpt #:     3  of   302
     c_bands:  1 eigenvalues not converged
     total cpu time spent up to now is      142.5 secs

     Computing kpt #:     4  of   302
     total cpu time spent up to now is      184.3 secs

     Computing kpt #:     5  of   302
     total cpu time spent up to now is      226.0 secs

     Computing kpt #:     6  of   302
     total cpu time spent up to now is      267.8 secs

     Computing kpt #:     7  of   302
     total cpu time spent up to now is      309.7 secs

     Computing kpt #:     8  of   302
     total cpu time spent up to now is      350.7 secs

     Computing kpt #:     9  of   302
     total cpu time spent up to now is      394.8 secs

     Computing kpt #:    10  of   302
     total cpu time spent up to now is      435.6 secs

     Computing kpt #:    11  of   302
     total cpu time spent up to now is      476.4 secs

     Computing kpt #:    12  of   302
     total cpu time spent up to now is      516.1 secs

     Computing kpt #:    13  of   302
     total cpu time spent up to now is      558.7 secs

     Computing kpt #:    14  of   302
     total cpu time spent up to now is      598.5 secs

     Computing kpt #:    15  of   302
     total cpu time spent up to now is      641.0 secs

     Computing kpt #:    16  of   302
     total cpu time spent up to now is      686.7 secs

     Computing kpt #:    17  of   302
     total cpu time spent up to now is      726.1 secs

     Computing kpt #:    18  of   302
     total cpu time spent up to now is      765.7 secs

     Computing kpt #:    19  of   302
     total cpu time spent up to now is      810.9 secs

     Computing kpt #:    20  of   302
     total cpu time spent up to now is      851.0 secs

     Computing kpt #:    21  of   302
     total cpu time spent up to now is      894.5 secs

     Computing kpt #:    22  of   302
     total cpu time spent up to now is      935.1 secs

     Computing kpt #:    23  of   302
     total cpu time spent up to now is      997.2 secs

     Computing kpt #:    24  of   302
     total cpu time spent up to now is     1044.2 secs

     Computing kpt #:    25  of   302
     total cpu time spent up to now is     1088.3 secs

     Computing kpt #:    26  of   302
     total cpu time spent up to now is     1126.0 secs

     Computing kpt #:    27  of   302
     total cpu time spent up to now is     1166.3 secs

     Computing kpt #:    28  of   302
     total cpu time spent up to now is     1230.7 secs

     Computing kpt #:    29  of   302
     total cpu time spent up to now is     1271.3 secs

     Computing kpt #:    30  of   302
     total cpu time spent up to now is     1317.8 secs

     Computing kpt #:    31  of   302
     total cpu time spent up to now is     1360.5 secs

     Computing kpt #:    32  of   302
     c_bands:  1 eigenvalues not converged
     total cpu time spent up to now is     1406.7 secs

     Computing kpt #:    33  of   302
     total cpu time spent up to now is     1452.5 secs

     Computing kpt #:    34  of   302
     c_bands:  1 eigenvalues not converged
     total cpu time spent up to now is     1498.7 secs

     Computing kpt #:    35  of   302
     c_bands:  1 eigenvalues not converged
     total cpu time spent up to now is     1544.9 secs

     Computing kpt #:    36  of   302
     total cpu time spent up to now is     1585.1 secs

     Computing kpt #:    37  of   302
     total cpu time spent up to now is     1624.8 secs

     Computing kpt #:    38  of   302
     total cpu time spent up to now is     1664.7 secs

     Computing kpt #:    39  of   302
     total cpu time spent up to now is     1704.6 secs

     Computing kpt #:    40  of   302
     total cpu time spent up to now is     1744.7 secs

     Computing kpt #:    41  of   302
     total cpu time spent up to now is     1785.2 secs

     Computing kpt #:    42  of   302
     total cpu time spent up to now is     1826.0 secs

     Computing kpt #:    43  of   302
     total cpu time spent up to now is     1866.8 secs

     Computing kpt #:    44  of   302
     total cpu time spent up to now is     1908.0 secs

     Computing kpt #:    45  of   302
     total cpu time spent up to now is     1949.9 secs

     Computing kpt #:    46  of   302
     total cpu time spent up to now is     1991.8 secs

     Computing kpt #:    47  of   302
     c_bands:  1 eigenvalues not converged
     total cpu time spent up to now is     2040.1 secs

     Computing kpt #:    48  of   302
     total cpu time spent up to now is     2079.5 secs

     Computing kpt #:    49  of   302
     total cpu time spent up to now is     2120.7 secs

     Computing kpt #:    50  of   302
     total cpu time spent up to now is     2162.3 secs

     Computing kpt #:    51  of   302
     total cpu time spent up to now is     2203.6 secs

     Computing kpt #:    52  of   302
     total cpu time spent up to now is     2245.2 secs

     Computing kpt #:    53  of   302
     total cpu time spent up to now is     2286.9 secs

     Computing kpt #:    54  of   302
     total cpu time spent up to now is     2328.2 secs

     Computing kpt #:    55  of   302
     total cpu time spent up to now is     2369.6 secs

     Computing kpt #:    56  of   302
     total cpu time spent up to now is     2408.6 secs

     Computing kpt #:    57  of   302
     total cpu time spent up to now is     2450.8 secs

     Computing kpt #:    58  of   302
     total cpu time spent up to now is     2492.9 secs

     Computing kpt #:    59  of   302
     total cpu time spent up to now is     2534.9 secs

     Computing kpt #:    60  of   302
     total cpu time spent up to now is     2576.7 secs

     Computing kpt #:    61  of   302
     total cpu time spent up to now is     2618.9 secs

     Computing kpt #:    62  of   302
     total cpu time spent up to now is     2660.5 secs

     Computing kpt #:    63  of   302
     total cpu time spent up to now is     2702.2 secs

     Computing kpt #:    64  of   302
     total cpu time spent up to now is     2744.0 secs

     Computing kpt #:    65  of   302
     total cpu time spent up to now is     2786.1 secs

     Computing kpt #:    66  of   302
     total cpu time spent up to now is     2827.4 secs

     Computing kpt #:    67  of   302
     total cpu time spent up to now is     2868.4 secs

     Computing kpt #:    68  of   302
     total cpu time spent up to now is     2909.3 secs

     Computing kpt #:    69  of   302
     total cpu time spent up to now is     2947.2 secs

     Computing kpt #:    70  of   302
     total cpu time spent up to now is     2985.2 secs

     Computing kpt #:    71  of   302
     total cpu time spent up to now is     3031.8 secs

     Computing kpt #:    72  of   302
     c_bands:  1 eigenvalues not converged
     total cpu time spent up to now is     3078.5 secs

     Computing kpt #:    73  of   302
     total cpu time spent up to now is     3119.0 secs

     Computing kpt #:    74  of   302
     c_bands:  1 eigenvalues not converged
     total cpu time spent up to now is     3171.9 secs

     Computing kpt #:    75  of   302
     total cpu time spent up to now is     3211.9 secs

     Computing kpt #:    76  of   302
     total cpu time spent up to now is     3256.4 secs

     Computing kpt #:    77  of   302
     total cpu time spent up to now is     3296.7 secs

     Computing kpt #:    78  of   302
     total cpu time spent up to now is     3339.9 secs

     Computing kpt #:    79  of   302
     total cpu time spent up to now is     3379.6 secs

     Computing kpt #:    80  of   302
     total cpu time spent up to now is     3419.4 secs

     Computing kpt #:    81  of   302
     total cpu time spent up to now is     3462.2 secs

     Computing kpt #:    82  of   302
     c_bands:  1 eigenvalues not converged
     total cpu time spent up to now is     3508.5 secs

     Computing kpt #:    83  of   302
     total cpu time spent up to now is     3548.2 secs

     Computing kpt #:    84  of   302
     total cpu time spent up to now is     3588.1 secs

     Computing kpt #:    85  of   302
     total cpu time spent up to now is     3627.4 secs

     Computing kpt #:    86  of   302
     total cpu time spent up to now is     3666.9 secs

     Computing kpt #:    87  of   302
     total cpu time spent up to now is     3707.0 secs

     Computing kpt #:    88  of   302
     total cpu time spent up to now is     3746.7 secs

     Computing kpt #:    89  of   302
     total cpu time spent up to now is     3786.8 secs

     Computing kpt #:    90  of   302
     total cpu time spent up to now is     3844.2 secs

     Computing kpt #:    91  of   302
     total cpu time spent up to now is     3886.9 secs

     Computing kpt #:    92  of   302
     total cpu time spent up to now is     3948.8 secs

     Computing kpt #:    93  of   302
     c_bands:  1 eigenvalues not converged
     total cpu time spent up to now is     3995.6 secs

     Computing kpt #:    94  of   302
     total cpu time spent up to now is     4035.9 secs

     Computing kpt #:    95  of   302
     total cpu time spent up to now is     4076.8 secs

     Computing kpt #:    96  of   302
     c_bands:  1 eigenvalues not converged
     total cpu time spent up to now is     4123.6 secs

     Computing kpt #:    97  of   302
     c_bands:  1 eigenvalues not converged
     total cpu time spent up to now is     4170.6 secs

     Computing kpt #:    98  of   302
     total cpu time spent up to now is     4214.8 secs

     Computing kpt #:    99  of   302
     total cpu time spent up to now is     4258.0 secs

     Computing kpt #:   100  of   302
     total cpu time spent up to now is     4298.9 secs

     Computing kpt #:   101  of   302
     total cpu time spent up to now is     4339.6 secs

     Computing kpt #:   102  of   302
     total cpu time spent up to now is     4377.1 secs

     Computing kpt #:   103  of   302
     total cpu time spent up to now is     4414.8 secs

     Computing kpt #:   104  of   302
     total cpu time spent up to now is     4452.9 secs

     Computing kpt #:   105  of   302
     total cpu time spent up to now is     4495.6 secs

     Computing kpt #:   106  of   302
     total cpu time spent up to now is     4537.0 secs

     Computing kpt #:   107  of   302
     total cpu time spent up to now is     4583.7 secs

     Computing kpt #:   108  of   302
     total cpu time spent up to now is     4625.3 secs

     Computing kpt #:   109  of   302
     total cpu time spent up to now is     4669.9 secs

     Computing kpt #:   110  of   302
     total cpu time spent up to now is     4710.3 secs

     Computing kpt #:   111  of   302
     total cpu time spent up to now is     4751.8 secs

     Computing kpt #:   112  of   302
     total cpu time spent up to now is     4793.6 secs

     Computing kpt #:   113  of   302
     total cpu time spent up to now is     4836.9 secs

     Computing kpt #:   114  of   302
     total cpu time spent up to now is     4878.4 secs

     Computing kpt #:   115  of   302
     total cpu time spent up to now is     4922.3 secs

     Computing kpt #:   116  of   302
     total cpu time spent up to now is     4966.3 secs

     Computing kpt #:   117  of   302
     total cpu time spent up to now is     5008.3 secs

     Computing kpt #:   118  of   302
     total cpu time spent up to now is     5050.0 secs

     Computing kpt #:   119  of   302
     total cpu time spent up to now is     5093.3 secs

     Computing kpt #:   120  of   302
     total cpu time spent up to now is     5143.9 secs

     Computing kpt #:   121  of   302
     total cpu time spent up to now is     5185.6 secs

     Computing kpt #:   122  of   302
     total cpu time spent up to now is     5232.7 secs

     Computing kpt #:   123  of   302
     total cpu time spent up to now is     5274.1 secs

     Computing kpt #:   124  of   302
     total cpu time spent up to now is     5313.9 secs

     Computing kpt #:   125  of   302
     total cpu time spent up to now is     5357.0 secs

     Computing kpt #:   126  of   302
     c_bands:  1 eigenvalues not converged
     total cpu time spent up to now is     5403.4 secs

     Computing kpt #:   127  of   302
     c_bands:  2 eigenvalues not converged
     total cpu time spent up to now is     5450.2 secs

     Computing kpt #:   128  of   302
     total cpu time spent up to now is     5490.4 secs

     Computing kpt #:   129  of   302
     total cpu time spent up to now is     5530.4 secs

     Computing kpt #:   130  of   302
     total cpu time spent up to now is     5570.2 secs

     Computing kpt #:   131  of   302
     total cpu time spent up to now is     5610.3 secs

     Computing kpt #:   132  of   302
     total cpu time spent up to now is     5650.2 secs

     Computing kpt #:   133  of   302
     total cpu time spent up to now is     5693.3 secs

     Computing kpt #:   134  of   302
     total cpu time spent up to now is     5736.2 secs

     Computing kpt #:   135  of   302
     total cpu time spent up to now is     5776.8 secs

     Computing kpt #:   136  of   302
     total cpu time spent up to now is     5817.0 secs

     Computing kpt #:   137  of   302
     total cpu time spent up to now is     5858.1 secs

     Computing kpt #:   138  of   302
     total cpu time spent up to now is     5898.9 secs

     Computing kpt #:   139  of   302
     total cpu time spent up to now is     5940.0 secs

     Computing kpt #:   140  of   302
     total cpu time spent up to now is     5981.2 secs

     Computing kpt #:   141  of   302
     total cpu time spent up to now is     6022.7 secs

     Computing kpt #:   142  of   302
     total cpu time spent up to now is     6069.8 secs

     Computing kpt #:   143  of   302
     c_bands:  1 eigenvalues not converged
     total cpu time spent up to now is     6117.7 secs

     Computing kpt #:   144  of   302
     total cpu time spent up to now is     6193.8 secs

     Computing kpt #:   145  of   302
     total cpu time spent up to now is     6287.9 secs

     Computing kpt #:   146  of   302
     total cpu time spent up to now is     6329.9 secs

     Computing kpt #:   147  of   302
     total cpu time spent up to now is     6377.9 secs

     Computing kpt #:   148  of   302
     total cpu time spent up to now is     6422.8 secs

     Computing kpt #:   149  of   302
     c_bands:  1 eigenvalues not converged
     total cpu time spent up to now is     6471.2 secs

     Computing kpt #:   150  of   302
     total cpu time spent up to now is     6515.9 secs

     Computing kpt #:   151  of   302
     total cpu time spent up to now is     6580.5 secs

     Computing kpt #:   152  of   302
     total cpu time spent up to now is     6622.5 secs

     Computing kpt #:   153  of   302
     total cpu time spent up to now is     6665.7 secs

     Computing kpt #:   154  of   302
     c_bands:  1 eigenvalues not converged
     total cpu time spent up to now is     6713.9 secs

     Computing kpt #:   155  of   302
     total cpu time spent up to now is     6761.5 secs

     Computing kpt #:   156  of   302
     total cpu time spent up to now is     6803.5 secs

     Computing kpt #:   157  of   302
     total cpu time spent up to now is     6881.5 secs

     Computing kpt #:   158  of   302
     total cpu time spent up to now is     7004.1 secs

     Computing kpt #:   159  of   302
     total cpu time spent up to now is     7045.5 secs

     Computing kpt #:   160  of   302
     total cpu time spent up to now is     7086.5 secs

     Computing kpt #:   161  of   302
     total cpu time spent up to now is     7133.5 secs

     Computing kpt #:   162  of   302
     total cpu time spent up to now is     7177.0 secs

     Computing kpt #:   163  of   302
     total cpu time spent up to now is     7217.5 secs

     Computing kpt #:   164  of   302
     total cpu time spent up to now is     7263.3 secs

     Computing kpt #:   165  of   302
     total cpu time spent up to now is     7433.6 secs

     Computing kpt #:   166  of   302
     total cpu time spent up to now is     7473.6 secs

     Computing kpt #:   167  of   302
     c_bands:  1 eigenvalues not converged
     total cpu time spent up to now is     7519.8 secs

     Computing kpt #:   168  of   302
     total cpu time spent up to now is     7559.5 secs

     Computing kpt #:   169  of   302
     total cpu time spent up to now is     7598.8 secs

     Computing kpt #:   170  of   302
     total cpu time spent up to now is     7641.1 secs

     Computing kpt #:   171  of   302
     total cpu time spent up to now is     7683.9 secs

     Computing kpt #:   172  of   302
     total cpu time spent up to now is     7725.2 secs

     Computing kpt #:   173  of   302
     total cpu time spent up to now is     7765.2 secs

     Computing kpt #:   174  of   302
     total cpu time spent up to now is     7806.8 secs

     Computing kpt #:   175  of   302
     total cpu time spent up to now is     7853.4 secs

     Computing kpt #:   176  of   302
     total cpu time spent up to now is     7894.6 secs

     Computing kpt #:   177  of   302
     total cpu time spent up to now is     7966.8 secs

     Computing kpt #:   178  of   302
     total cpu time spent up to now is     8010.3 secs

     Computing kpt #:   179  of   302
     total cpu time spent up to now is     8053.1 secs

     Computing kpt #:   180  of   302
     total cpu time spent up to now is     8140.2 secs

     Computing kpt #:   181  of   302
     c_bands:  1 eigenvalues not converged
     total cpu time spent up to now is     8187.0 secs

     Computing kpt #:   182  of   302
     total cpu time spent up to now is     8232.7 secs

     Computing kpt #:   183  of   302
     c_bands:  1 eigenvalues not converged
     total cpu time spent up to now is     8286.3 secs

     Computing kpt #:   184  of   302
     total cpu time spent up to now is     8469.0 secs

     Computing kpt #:   185  of   302
     c_bands:  1 eigenvalues not converged
     total cpu time spent up to now is     8514.7 secs

     Computing kpt #:   186  of   302
     c_bands:  1 eigenvalues not converged
     total cpu time spent up to now is     8560.7 secs

     Computing kpt #:   187  of   302
     total cpu time spent up to now is     8603.6 secs

     Computing kpt #:   188  of   302
     total cpu time spent up to now is     8643.6 secs

     Computing kpt #:   189  of   302
     total cpu time spent up to now is     8683.5 secs

     Computing kpt #:   190  of   302
     total cpu time spent up to now is     8723.7 secs

     Computing kpt #:   191  of   302
     total cpu time spent up to now is     8761.2 secs

     Computing kpt #:   192  of   302
     total cpu time spent up to now is     8801.6 secs

     Computing kpt #:   193  of   302
     total cpu time spent up to now is     8842.1 secs

     Computing kpt #:   194  of   302
     total cpu time spent up to now is     8883.6 secs

     Computing kpt #:   195  of   302
     total cpu time spent up to now is     8924.7 secs

     Computing kpt #:   196  of   302
     total cpu time spent up to now is     8967.0 secs

     Computing kpt #:   197  of   302
     total cpu time spent up to now is     9008.9 secs

     Computing kpt #:   198  of   302
     c_bands:  1 eigenvalues not converged
     total cpu time spent up to now is     9057.3 secs

     Computing kpt #:   199  of   302
     total cpu time spent up to now is     9096.7 secs

     Computing kpt #:   200  of   302
     total cpu time spent up to now is     9135.5 secs

     Computing kpt #:   201  of   302
     total cpu time spent up to now is     9177.0 secs

     Computing kpt #:   202  of   302
     total cpu time spent up to now is     9218.2 secs

     Computing kpt #:   203  of   302
     total cpu time spent up to now is     9259.1 secs

     Computing kpt #:   204  of   302
     total cpu time spent up to now is     9300.4 secs

     Computing kpt #:   205  of   302
     total cpu time spent up to now is     9339.6 secs

     Computing kpt #:   206  of   302
     total cpu time spent up to now is     9378.8 secs

     Computing kpt #:   207  of   302
     total cpu time spent up to now is     9417.8 secs

     Computing kpt #:   208  of   302
     total cpu time spent up to now is     9459.4 secs

     Computing kpt #:   209  of   302
     total cpu time spent up to now is     9501.2 secs

     Computing kpt #:   210  of   302
     total cpu time spent up to now is     9543.2 secs

     Computing kpt #:   211  of   302
     total cpu time spent up to now is     9585.3 secs

     Computing kpt #:   212  of   302
     total cpu time spent up to now is     9627.2 secs

     Computing kpt #:   213  of   302
     total cpu time spent up to now is     9668.4 secs

     Computing kpt #:   214  of   302
     total cpu time spent up to now is     9709.7 secs

     Computing kpt #:   215  of   302
     total cpu time spent up to now is     9768.9 secs

     Computing kpt #:   216  of   302
     total cpu time spent up to now is     9810.4 secs

     Computing kpt #:   217  of   302
     total cpu time spent up to now is     9851.5 secs

     Computing kpt #:   218  of   302
     total cpu time spent up to now is     9892.6 secs

     Computing kpt #:   219  of   302
     total cpu time spent up to now is     9933.7 secs

     Computing kpt #:   220  of   302
     total cpu time spent up to now is    10109.0 secs

     Computing kpt #:   221  of   302
     total cpu time spent up to now is    10149.1 secs

     Computing kpt #:   222  of   302
     c_bands:  1 eigenvalues not converged
     total cpu time spent up to now is    10195.9 secs

     Computing kpt #:   223  of   302
     c_bands:  1 eigenvalues not converged
     total cpu time spent up to now is    10242.8 secs

     Computing kpt #:   224  of   302
     total cpu time spent up to now is    10280.4 secs

     Computing kpt #:   225  of   302
     total cpu time spent up to now is    10320.3 secs

     Computing kpt #:   226  of   302
     total cpu time spent up to now is    10360.6 secs

     Computing kpt #:   227  of   302
     total cpu time spent up to now is    10407.9 secs

     Computing kpt #:   228  of   302
     c_bands:  1 eigenvalues not converged
     total cpu time spent up to now is    10454.3 secs

     Computing kpt #:   229  of   302
     c_bands:  1 eigenvalues not converged
     total cpu time spent up to now is    10538.9 secs

     Computing kpt #:   230  of   302
     total cpu time spent up to now is    10578.4 secs

     Computing kpt #:   231  of   302
     total cpu time spent up to now is    10615.9 secs

     Computing kpt #:   232  of   302
     total cpu time spent up to now is    10656.2 secs

     Computing kpt #:   233  of   302
     total cpu time spent up to now is    10696.4 secs

     Computing kpt #:   234  of   302
     total cpu time spent up to now is    10742.2 secs

     Computing kpt #:   235  of   302
     total cpu time spent up to now is    10781.1 secs

     Computing kpt #:   236  of   302
     total cpu time spent up to now is    10821.0 secs

     Computing kpt #:   237  of   302
     total cpu time spent up to now is    10860.6 secs

     Computing kpt #:   238  of   302
     total cpu time spent up to now is    10897.8 secs

     Computing kpt #:   239  of   302
     total cpu time spent up to now is    10937.3 secs

     Computing kpt #:   240  of   302
     total cpu time spent up to now is    10977.2 secs

     Computing kpt #:   241  of   302
     total cpu time spent up to now is    11017.1 secs

     Computing kpt #:   242  of   302
     total cpu time spent up to now is    11102.9 secs

     Computing kpt #:   243  of   302
     total cpu time spent up to now is    11143.0 secs

     Computing kpt #:   244  of   302
     total cpu time spent up to now is    11189.3 secs

     Computing kpt #:   245  of   302
     total cpu time spent up to now is    11232.8 secs

     Computing kpt #:   246  of   302
     total cpu time spent up to now is    11338.0 secs

     Computing kpt #:   247  of   302
     c_bands:  1 eigenvalues not converged
     total cpu time spent up to now is    11385.7 secs

     Computing kpt #:   248  of   302
     total cpu time spent up to now is    11524.5 secs

     Computing kpt #:   249  of   302
     c_bands:  1 eigenvalues not converged
     total cpu time spent up to now is    11877.9 secs

     Computing kpt #:   250  of   302
     total cpu time spent up to now is    12205.3 secs

     Computing kpt #:   251  of   302
     total cpu time spent up to now is    12412.5 secs

     Computing kpt #:   252  of   302
     total cpu time spent up to now is    12449.6 secs

     Computing kpt #:   253  of   302
     total cpu time spent up to now is    12487.0 secs

     Computing kpt #:   254  of   302
     total cpu time spent up to now is    12524.4 secs

     Computing kpt #:   255  of   302
     total cpu time spent up to now is    12563.0 secs

     Computing kpt #:   256  of   302
     total cpu time spent up to now is    12603.5 secs

     Computing kpt #:   257  of   302
     total cpu time spent up to now is    12645.5 secs

     Computing kpt #:   258  of   302
     c_bands:  1 eigenvalues not converged
     total cpu time spent up to now is    12717.4 secs

     Computing kpt #:   259  of   302
     total cpu time spent up to now is    12759.0 secs

     Computing kpt #:   260  of   302
     total cpu time spent up to now is    12800.7 secs

     Computing kpt #:   261  of   302
     total cpu time spent up to now is    12839.5 secs

     Computing kpt #:   262  of   302
     total cpu time spent up to now is    12878.3 secs

     Computing kpt #:   263  of   302
     total cpu time spent up to now is    12919.7 secs

     Computing kpt #:   264  of   302
     total cpu time spent up to now is    12961.2 secs

     Computing kpt #:   265  of   302
     total cpu time spent up to now is    13002.7 secs

     Computing kpt #:   266  of   302
     total cpu time spent up to now is    13049.8 secs

     Computing kpt #:   267  of   302
     total cpu time spent up to now is    13097.2 secs

     Computing kpt #:   268  of   302
     total cpu time spent up to now is    13138.3 secs

     Computing kpt #:   269  of   302
     total cpu time spent up to now is    13180.1 secs

     Computing kpt #:   270  of   302
     total cpu time spent up to now is    13221.9 secs

     Computing kpt #:   271  of   302
     total cpu time spent up to now is    13263.7 secs

     Computing kpt #:   272  of   302
     total cpu time spent up to now is    13305.3 secs

     Computing kpt #:   273  of   302
     total cpu time spent up to now is    13352.7 secs

     Computing kpt #:   274  of   302
     total cpu time spent up to now is    13393.2 secs

     Computing kpt #:   275  of   302
     total cpu time spent up to now is    13433.1 secs

     Computing kpt #:   276  of   302
     total cpu time spent up to now is    13475.8 secs

     Computing kpt #:   277  of   302
     c_bands:  1 eigenvalues not converged
     total cpu time spent up to now is    13522.3 secs

     Computing kpt #:   278  of   302
     c_bands:  1 eigenvalues not converged
     total cpu time spent up to now is    13632.6 secs

     Computing kpt #:   279  of   302
     total cpu time spent up to now is    13772.9 secs

     Computing kpt #:   280  of   302
     total cpu time spent up to now is    13813.1 secs

     Computing kpt #:   281  of   302
     total cpu time spent up to now is    13853.1 secs

     Computing kpt #:   282  of   302
     total cpu time spent up to now is    13893.8 secs

     Computing kpt #:   283  of   302
     total cpu time spent up to now is    13933.8 secs

     Computing kpt #:   284  of   302
     total cpu time spent up to now is    13974.1 secs

     Computing kpt #:   285  of   302
     total cpu time spent up to now is    14014.1 secs

     Computing kpt #:   286  of   302
     total cpu time spent up to now is    14054.6 secs

     Computing kpt #:   287  of   302
     total cpu time spent up to now is    14101.0 secs

     Computing kpt #:   288  of   302
     total cpu time spent up to now is    14141.8 secs

     Computing kpt #:   289  of   302
     total cpu time spent up to now is    14182.7 secs

     Computing kpt #:   290  of   302
     total cpu time spent up to now is    14224.0 secs

     Computing kpt #:   291  of   302
     total cpu time spent up to now is    14265.0 secs

     Computing kpt #:   292  of   302
     total cpu time spent up to now is    14306.2 secs

     Computing kpt #:   293  of   302
     total cpu time spent up to now is    14347.8 secs

     Computing kpt #:   294  of   302
     total cpu time spent up to now is    14389.1 secs

     Computing kpt #:   295  of   302
     total cpu time spent up to now is    14430.4 secs

     Computing kpt #:   296  of   302
     total cpu time spent up to now is    14472.3 secs

     Computing kpt #:   297  of   302
     total cpu time spent up to now is    14561.6 secs

     Computing kpt #:   298  of   302
     total cpu time spent up to now is    14734.7 secs

     Computing kpt #:   299  of   302
     total cpu time spent up to now is    14776.3 secs

     Computing kpt #:   300  of   302
     c_bands:  1 eigenvalues not converged
     total cpu time spent up to now is    14824.5 secs

     Computing kpt #:   301  of   302
     total cpu time spent up to now is    14947.6 secs

     Computing kpt #:   302  of   302
     total cpu time spent up to now is    15258.2 secs

     ethr =  7.25E-11,  avg # of iterations = 77.0

     total cpu time spent up to now is    15258.2 secs

     End of band structure calculation

 ------ SPIN UP ------------


          k = 0.0000 0.0000 0.0000 ( 23485 PWs)   bands (ev):

   -73.9730 -69.3498 -42.7269 -42.7217 -42.7205 -38.1911 -38.1868 -38.1722
   -15.5734 -15.5732 -15.5731 -15.5730 -15.5625 -15.5624 -15.5623 -15.5620
   -15.5611 -15.5610 -15.5578 -15.5576 -15.5572 -15.5571 -15.5507 -15.5504
   -15.5437 -15.5435 -15.5431 -15.5430  -5.6099  -5.5804  -5.4118  -5.3674
    -3.8497  -3.6309  -3.3863  -3.1048  -1.5830  -1.2446  -0.8981  -0.6277
     3.6941   4.2202   4.2521   4.2526   4.8543   4.8563   5.0783   5.1755
     5.5670   5.8363   5.8377   5.9328   5.9332   6.0171   6.0184   6.1485
     6.1489   6.2185   6.3116   6.3125   6.5737   6.9102   6.9109   7.0330
     7.0338   7.4711   7.4815   7.4817   7.7403   8.3166   8.5781   8.5793
     8.5936   8.8485   8.8526   8.8716   8.8720   8.9159   8.9844   9.1464
     9.2711   9.2718   9.3112   9.3118  10.1758  10.1779  11.4670  11.7577
    11.7829  12.5663  12.8616  12.8642  13.2815  13.3397  13.3854  13.3884
    13.5569  13.7106  13.7114  13.8333  13.9315  14.1758  14.1777  14.2326
    14.2332  14.6609  14.7823  14.7830  15.0481  15.1780  15.4164  15.4178
    15.4290  15.5634  15.5653  15.8246  16.0785  16.3273  16.3280  16.3885
    16.3894  16.5932  16.5939  16.6621  16.9001  16.9227  16.9240  17.7913
    18.0723  18.0727  18.2141  18.3338  18.7226  18.7241  19.0233  19.0253
    19.1001  19.1003  19.2166  19.3142  19.5771  20.1398  21.0077  21.0082
    21.1519  21.1800  21.1804  21.2870  21.2887  21.3453  21.6373  21.7170
    21.7181  21.8628  22.9699  23.6342  23.6346  23.8716  23.8732  24.0251
    24.0550  24.0554  24.1666  25.0497  25.0506  25.6176  25.8064  26.1680
    26.5426  26.5433  26.7933  27.2545  27.4596  27.4610  27.4962  27.4965
    27.7882  27.7893  27.9689  28.4253  28.4710  28.5685  28.6232  29.0558
    29.3767  29.4591  29.4604  29.5509  29.6990  29.7008  29.7045  29.7048
    29.9723  29.9728  30.2430  30.2451  30.4590  30.5286  30.6991  30.7711

          k = 0.1261 0.0731-0.0100 ( 23471 PWs)   bands (ev):

   -73.9730 -69.3498 -42.7269 -42.7217 -42.7205 -38.1911 -38.1868 -38.1722
   -15.5733 -15.5732 -15.5731 -15.5730 -15.5625 -15.5624 -15.5623 -15.5620
   -15.5610 -15.5609 -15.5577 -15.5576 -15.5572 -15.5571 -15.5506 -15.5503
   -15.5436 -15.5435 -15.5431 -15.5430  -5.6064  -5.5769  -5.4084  -5.3640
    -3.8471  -3.6285  -3.3843  -3.1032  -1.5838  -1.2468  -0.9011  -0.6324
     3.6939   4.2171   4.2493   4.2532   4.8529   4.8553   5.0709   5.1687
     5.5101   5.8253   5.8271   5.9191   5.9287   5.9661   5.9999   6.1511
     6.1654   6.2024   6.3057   6.3205   6.6708   6.8673   6.9156   6.9811
     7.0233   7.4257   7.4840   7.5004   7.7415   8.3555   8.5739   8.5787
     8.5891   8.8368   8.8432   8.9052   8.9157   8.9198   9.0351   9.1343
     9.2301   9.2313   9.3538   9.3604  10.1716  10.1777  11.4819  11.7657
    11.7962  12.5821  12.8342  12.8728  13.2094  13.3611  13.3971  13.4417
    13.5214  13.6716  13.7186  13.8508  13.9495  14.0991  14.1203  14.2714
    14.2941  14.6527  14.7640  14.7729  15.0934  15.1997  15.4319  15.4498
    15.4559  15.5846  15.6185  15.8053  16.1091  16.2874  16.2905  16.3036
    16.3211  16.6419  16.6743  16.6784  16.9614  16.9662  16.9981  17.7991
    18.0165  18.0463  18.2825  18.3668  18.5799  18.6444  18.9884  19.0538
    19.0917  19.1521  19.3041  19.4166  19.6409  20.1577  20.8714  20.9060
    21.0907  21.2042  21.2323  21.2455  21.2935  21.3198  21.6920  21.7795
    21.9008  21.9243  22.9396  23.5440  23.5659  23.8362  23.8535  24.0052
    24.1294  24.1619  24.2152  25.0182  25.0787  25.6447  25.8172  26.2369
    26.4685  26.5098  26.8225  27.1179  27.3821  27.4212  27.5000  27.6225
    27.8565  27.8592  28.0060  28.3720  28.4168  28.5180  28.5732  29.0594
    29.3815  29.3921  29.4333  29.5561  29.5852  29.6403  29.6531  29.6791
    29.8558  29.9115  30.1106  30.1803  30.3445  30.5895  30.5982  30.6782

          k = 0.2521 0.1462-0.0200 ( 23466 PWs)   bands (ev):

   -73.9730 -69.3498 -42.7269 -42.7217 -42.7205 -38.1911 -38.1868 -38.1722
   -15.5732 -15.5732 -15.5731 -15.5730 -15.5626 -15.5625 -15.5621 -15.5619
   -15.5609 -15.5608 -15.5577 -15.5576 -15.5573 -15.5572 -15.5505 -15.5502
   -15.5436 -15.5435 -15.5432 -15.5431  -5.5958  -5.5664  -5.3980  -5.3537
    -3.8394  -3.6214  -3.3784  -3.0983  -1.5864  -1.2534  -0.9103  -0.6463
     3.6931   4.2080   4.2412   4.2550   4.8484   4.8522   5.0469   5.1463
     5.3823   5.7731   5.8005   5.8248   5.9055   5.9682   5.9726   5.9933
     6.1400   6.2839   6.2957   6.4388   6.6958   6.8512   6.9010   6.9237
     7.0014   7.3012   7.4882   7.5333   7.7141   8.4362   8.5855   8.5874
     8.6208   8.8276   8.8422   8.9211   8.9724   8.9784   9.0878   9.1615
     9.1839   9.2323   9.4096   9.4139  10.1608  10.1813  11.5243  11.7830
    11.8338  12.6223  12.7817  12.8989  13.1020  13.4028  13.4263  13.4287
    13.4900  13.5839  13.7401  13.8751  13.9588  14.0314  14.0498  14.2995
    14.3786  14.6300  14.7192  14.7626  15.2076  15.2562  15.4492  15.5099
    15.5341  15.6469  15.7446  15.7986  16.1637  16.2015  16.2099  16.2293
    16.2509  16.6381  16.7346  16.8208  17.0623  17.1392  17.1574  17.8088
    17.9726  17.9776  18.2987  18.3845  18.4803  18.5022  18.9210  19.0169
    19.1969  19.3024  19.3683  19.6150  19.7963  20.2354  20.6865  20.7560
    20.8245  21.1264  21.2077  21.2681  21.3185  21.4640  21.8685  21.9171
    22.0321  22.2251  22.8437  23.4002  23.4279  23.7326  23.7984  24.0329
    24.2378  24.2879  24.4025  24.9436  25.1596  25.7257  25.8490  26.2763
    26.4216  26.4234  26.8643  26.9740  27.1686  27.2888  27.5906  27.8314
    27.9412  27.9831  28.1220  28.2098  28.2605  28.3617  28.4192  29.0672
    29.1735  29.3057  29.3668  29.3804  29.4517  29.5255  29.5476  29.6101
    29.6511  29.7908  29.8797  30.0042  30.0756  30.3324  30.4632  30.6692

          k = 0.3782 0.2192-0.0300 ( 23449 PWs)   bands (ev):

   -73.9730 -69.3498 -42.7269 -42.7217 -42.7205 -38.1912 -38.1868 -38.1722
   -15.5733 -15.5733 -15.5729 -15.5728 -15.5627 -15.5627 -15.5619 -15.5617
   -15.5607 -15.5606 -15.5577 -15.5576 -15.5573 -15.5573 -15.5503 -15.5501
   -15.5435 -15.5435 -15.5431 -15.5431  -5.5782  -5.5489  -5.3808  -5.3367
    -3.8266  -3.6096  -3.3687  -3.0904  -1.5909  -1.2645  -0.9257  -0.6696
     3.6908   4.1930   4.2278   4.2580   4.8394   4.8471   5.0008   5.0938
     5.2499   5.6516   5.7476   5.7603   5.8196   5.8515   5.9450   6.0058
     6.0987   6.2926   6.3440   6.4893   6.5739   6.7981   6.9117   6.9896
     7.0336   7.1506   7.4900   7.4902   7.6709   8.5054   8.6043   8.6085
     8.7406   8.8121   8.8495   8.9303   9.0058   9.0469   9.0972   9.1601
     9.2499   9.3097   9.4608   9.4818  10.1583  10.1889  11.5870  11.7937
    11.8903  12.6639  12.7442  12.9410  13.0214  13.3075  13.3998  13.4644
    13.4802  13.5093  13.7755  13.8678  13.8955  13.9893  14.1089  14.3185
    14.4658  14.5897  14.6677  14.7847  15.2826  15.3217  15.4876  15.5709
    15.6499  15.7484  15.7982  15.9248  16.1078  16.1558  16.1892  16.2169
    16.3497  16.5956  16.8044  16.9852  17.2016  17.2762  17.3815  17.8160
    17.8850  18.0063  18.0513  18.3542  18.4520  18.6244  18.8689  19.0661
    19.3249  19.3352  19.4884  19.7678  19.9706  20.3833  20.5498  20.5999
    20.6094  21.0100  21.1879  21.2945  21.3557  21.6470  22.0154  22.0858
    22.2854  22.4494  22.7535  23.2758  23.2851  23.5849  23.7201  24.1152
    24.3193  24.4753  24.5995  24.8586  25.2804  25.8524  25.9047  26.0345
    26.3062  26.6430  26.7581  26.9324  27.0391  27.1441  27.6873  27.9223
    27.9655  27.9656  27.9848  28.0948  28.1584  28.2037  28.3118  28.8471
    28.9195  29.0871  29.1131  29.1895  29.2755  29.4164  29.4380  29.5407
    29.5781  29.6357  29.6963  29.7990  29.8685  29.9753  30.2050  30.4576

          k = 0.5042 0.2923-0.0400 ( 23456 PWs)   bands (ev):

   -73.9730 -69.3498 -42.7269 -42.7217 -42.7205 -38.1912 -38.1868 -38.1722
   -15.5736 -15.5736 -15.5726 -15.5725 -15.5630 -15.5630 -15.5617 -15.5615
   -15.5604 -15.5603 -15.5577 -15.5576 -15.5574 -15.5573 -15.5500 -15.5498
   -15.5436 -15.5435 -15.5432 -15.5431  -5.5537  -5.5245  -5.3568  -5.3129
    -3.8088  -3.5932  -3.3553  -3.0794  -1.5976  -1.2803  -0.9477  -0.7021
     3.6859   4.1725   4.2087   4.2620   4.8202   4.8403   4.9276   4.9813
     5.1708   5.5217   5.5870   5.7085   5.7558   5.7814   5.9185   6.0022
     6.0365   6.2766   6.2910   6.4140   6.5322   6.8774   6.8776   6.9774
     6.9886   7.1494   7.4001   7.4884   7.6146   8.4941   8.6484   8.7077
     8.7961   8.8553   8.8630   8.9558   9.0073   9.0690   9.1409   9.2164
     9.3496   9.3945   9.5031   9.5935  10.1810  10.2021  11.6546  11.7883
    11.9582  12.6861  12.7128  12.9968  13.0054  13.1828  13.3247  13.3805
    13.4773  13.5495  13.8235  13.8527  13.8870  13.9458  14.1834  14.3461
    14.5308  14.5491  14.6292  14.8514  15.2180  15.3545  15.6159  15.6719
    15.7818  15.8756  15.9053  16.0097  16.0291  16.1385  16.1976  16.3744
    16.5241  16.5636  16.8883  17.1585  17.3253  17.3617  17.6219  17.7870
    17.8063  17.8924  18.1265  18.2135  18.5085  18.7151  18.9403  19.1951
    19.2216  19.4689  19.6866  19.8185  20.0163  20.4182  20.4725  20.5333
    20.7156  20.9037  21.1438  21.3153  21.4705  21.8343  22.1376  22.2705
    22.3333  22.5924  22.9409  23.1240  23.1964  23.4296  23.6318  24.2521
    24.4140  24.6759  24.7648  24.7829  25.4295  25.7531  25.9505  26.0553
    26.1744  26.5852  26.7119  26.8816  26.9979  27.2076  27.5095  27.5795
    27.7489  27.8119  27.9358  27.9405  28.0174  28.3276  28.3945  28.4685
    28.6420  28.6982  28.8863  29.1046  29.1337  29.1936  29.1960  29.3764
    29.4961  29.5260  29.6139  29.6436  29.7575  29.8192  29.8805  30.0952

          k = 0.6303 0.3654-0.0500 ( 23429 PWs)   bands (ev):

   -73.9730 -69.3498 -42.7269 -42.7217 -42.7205 -38.1912 -38.1868 -38.1722
   -15.5739 -15.5739 -15.5722 -15.5722 -15.5633 -15.5633 -15.5614 -15.5612
   -15.5600 -15.5600 -15.5578 -15.5577 -15.5573 -15.5572 -15.5497 -15.5495
   -15.5436 -15.5436 -15.5431 -15.5430  -5.5222  -5.4932  -5.3261  -5.2825
    -3.7861  -3.5723  -3.3383  -3.0656  -1.6069  -1.3011  -0.9766  -0.7438
     3.6767   4.1462   4.1832   4.2669   4.7582   4.8317   4.8387   4.8537
     5.1281   5.3712   5.4607   5.6458   5.6950   5.7061   5.8767   5.9128
     5.9690   6.1793   6.2839   6.2852   6.6011   6.7749   6.8397   6.9782
     7.0063   7.1262   7.3810   7.4856   7.5358   8.4551   8.6989   8.7671
     8.8542   8.8815   8.8946   8.9720   9.0654   9.0973   9.1732   9.3263
     9.3786   9.5339   9.5980   9.6974  10.2218  10.2400  11.6782  11.8047
    12.0288  12.6159  12.7637  12.9788  13.0633  13.0750  13.2397  13.3505
    13.4304  13.6334  13.8455  13.8736  13.9212  13.9348  14.2152  14.3781
    14.4623  14.5719  14.6695  14.9521  15.1619  15.3461  15.6904  15.8483
    15.8872  15.9519  16.0545  16.0589  16.1363  16.1369  16.2492  16.4721
    16.6058  16.7978  16.9757  17.3084  17.3339  17.5116  17.6670  17.7177
    17.8616  18.0239  18.0870  18.2612  18.5890  18.7247  18.9834  19.2006
    19.4037  19.6131  19.7319  19.8886  19.8968  20.3506  20.5493  20.6811
    20.8207  20.9386  21.1035  21.3536  21.6412  22.0208  22.0940  22.2452
    22.4659  22.9078  22.9772  23.0644  23.2468  23.3322  23.5448  24.4220
    24.5319  24.7067  24.8835  24.9030  25.4732  25.5981  25.9966  26.0366
    26.2441  26.4275  26.5588  26.8511  27.0625  27.1103  27.1699  27.3493
    27.4134  27.4215  27.7916  27.8624  28.0255  28.0401  28.0873  28.3738
    28.4437  28.6534  28.6893  28.8039  28.9107  28.9302  29.1177  29.1806
    29.3259  29.4153  29.4918  29.6214  29.6452  29.6647  29.7438  29.8168

          k = 0.7563 0.4385-0.0600 ( 23445 PWs)   bands (ev):

   -73.9730 -69.3498 -42.7269 -42.7217 -42.7205 -38.1912 -38.1869 -38.1722
   -15.5743 -15.5743 -15.5718 -15.5718 -15.5638 -15.5637 -15.5610 -15.5608
   -15.5597 -15.5597 -15.5580 -15.5579 -15.5571 -15.5571 -15.5494 -15.5492
   -15.5438 -15.5437 -15.5430 -15.5429  -5.4838  -5.4550  -5.2886  -5.2454
    -3.7589  -3.5472  -3.3181  -3.0492  -1.6194  -1.3272  -1.0126  -0.7946
     3.6614   4.1103   4.1520   4.2724   4.6320   4.6935   4.8131   4.8218
     5.0921   5.2096   5.3812   5.5731   5.6085   5.6295   5.7455   5.8148
     5.9059   6.0747   6.2373   6.2703   6.6131   6.6626   6.8048   6.9512
     6.9808   7.0740   7.4096   7.4636   7.4834   8.4428   8.7492   8.7587
     8.8461   8.9017   8.9592   9.0087   9.0825   9.1651   9.2899   9.4371
     9.4484   9.5522   9.7602   9.8219  10.2483  10.3317  11.6367  11.8673
    12.0904  12.5431  12.8257  12.8757  13.0012  13.1372  13.1552  13.3673
    13.4439  13.7266  13.8426  13.9001  13.9766  13.9884  14.2138  14.3908
    14.4105  14.5650  14.7645  15.0760  15.1527  15.3412  15.7477  15.8612
    15.9897  16.0074  16.1608  16.2292  16.2702  16.2802  16.3193  16.5211
    16.8203  16.9963  17.1053  17.2754  17.4835  17.5363  17.6842  17.8085
    17.9882  18.0693  18.1897  18.3901  18.7207  18.7523  18.7967  19.3627
    19.5689  19.6777  19.7382  19.8363  20.0666  20.2715  20.7245  20.7779
    20.9027  21.0305  21.1781  21.4154  21.8180  21.8593  22.1992  22.3479
    22.6693  22.8373  22.9916  23.1663  23.3019  23.4701  23.5563  24.5665
    24.6490  24.7139  24.9853  25.0941  25.1971  25.7787  25.8970  25.9804
    26.2818  26.3307  26.6072  26.6610  26.6759  26.7551  26.9303  26.9956
    27.2021  27.3024  27.4943  27.5927  27.6658  27.8825  27.9885  28.2015
    28.3416  28.4283  28.5572  28.5792  28.6225  28.9105  28.9397  28.9641
    29.2318  29.2663  29.3295  29.3628  29.4216  29.5482  29.5588  29.6507

          k = 0.8824 0.5116-0.0700 ( 23445 PWs)   bands (ev):

   -73.9730 -69.3498 -42.7270 -42.7217 -42.7205 -38.1913 -38.1869 -38.1722
   -15.5748 -15.5748 -15.5714 -15.5714 -15.5642 -15.5642 -15.5605 -15.5604
   -15.5593 -15.5593 -15.5582 -15.5582 -15.5569 -15.5569 -15.5489 -15.5488
   -15.5440 -15.5439 -15.5427 -15.5427  -5.4387  -5.4101  -5.2446  -5.2019
    -3.7272  -3.5182  -3.2949  -3.0306  -1.6358  -1.3591  -1.0561  -0.8544
     3.6383   4.0565   4.1180   4.2783   4.4862   4.5581   4.7719   4.8107
     5.0262   5.0853   5.3260   5.4881   5.4935   5.5521   5.5658   5.7393
     5.8447   5.9812   6.1840   6.2520   6.5028   6.6965   6.7729   6.8704
     6.9083   7.0030   7.3822   7.4589   7.4818   8.4729   8.7478   8.7904
     8.8147   8.9196   8.9804   9.0236   9.1330   9.2417   9.4312   9.5564
     9.5632   9.5754   9.7813  10.0325  10.2802  10.4409  11.5841  11.9270
    12.1326  12.4923  12.7342  12.8926  12.9600  13.0841  13.2150  13.3403
    13.5625  13.8167  13.8348  13.9450  14.0241  14.0754  14.2111  14.3751
    14.4290  14.5806  14.8681  15.1525  15.2184  15.3771  15.7695  15.8317
    16.0151  16.0769  16.2679  16.3373  16.4158  16.4592  16.4762  16.7336
    16.9680  17.1564  17.2693  17.3379  17.4369  17.6175  17.8468  17.9606
    18.0065  18.2407  18.3450  18.5030  18.5490  18.8653  18.9271  19.3151
    19.6808  19.7008  19.8218  20.0692  20.0761  20.3805  20.7959  20.9033
    21.0151  21.1311  21.3187  21.5056  21.6526  21.9171  22.3572  22.5429
    22.7041  22.8803  22.9141  23.2528  23.4222  23.5477  23.8301  24.6138
    24.6800  24.9311  24.9401  24.9981  25.3017  25.7515  25.9254  25.9633
    26.1296  26.2126  26.2518  26.3630  26.4197  26.5566  26.6443  26.7056
    26.8824  27.0578  27.2339  27.2930  27.3643  27.5978  27.9719  28.0929
    28.1237  28.1567  28.3168  28.3754  28.4715  28.6852  28.8527  28.9043
    28.9284  28.9486  29.0624  29.3113  29.3127  29.4535  29.5625  29.6516

[...]
    -3.7273  -3.5225  -3.2957  -3.0329  -1.6339  -1.3561  -1.0531  -0.8502
     3.6504   4.0655   4.1310   4.2751   4.5405   4.5920   4.7814   4.8102
     5.0133   5.0700   5.2691   5.3453   5.5226   5.5307   5.6131   5.8401
     5.9182   6.0320   6.0989   6.3692   6.4066   6.6413   6.8400   6.8543
     7.0297   7.0386   7.2362   7.4447   7.5072   8.5983   8.7401   8.7561
     8.7964   8.8288   9.0018   9.0296   9.2473   9.3053   9.3417   9.4170
     9.4981   9.6979   9.8686   9.9248  10.1759  10.4415  11.7095  11.9239
    12.2165  12.5234  12.7553  12.7857  12.9323  12.9883  13.2005  13.3955
    13.5065  13.6126  13.8026  13.8877  14.0005  14.0374  14.2959  14.3917
    14.6984  14.8011  15.0008  15.0611  15.1448  15.2123  15.5775  15.8414
    16.0705  16.1905  16.2002  16.3440  16.4409  16.5361  16.5818  16.5919
    16.9991  17.0774  17.2733  17.3073  17.3087  17.4899  17.7937  17.8106
    18.0990  18.2906  18.4426  18.6336  18.8054  18.9288  18.9415  19.1611
    19.3695  19.6936  19.7659  19.9026  20.1440  20.3686  20.6944  20.9989
    21.0395  21.5012  21.5405  21.6325  21.6805  21.7467  22.0044  22.1994
    22.5627  22.6646  23.0696  23.4699  23.5954  23.7807  23.9742  24.3402
    24.7504  24.7932  25.0223  25.0889  25.2283  25.2995  25.6929  25.8454
    25.9248  26.0958  26.1492  26.2320  26.3573  26.7754  26.8246  27.0199
    27.2259  27.4786  27.6896  27.7619  27.8005  28.0116  28.0650  28.1736
    28.1822  28.2658  28.2910  28.4125  28.4417  28.5132  28.5340  28.6167
    28.6239  28.9186  28.9771  29.0039  29.1473  29.3251  29.5262  29.7722

          k = 0.4384 0.7657-0.0700 ( 23440 PWs)   bands (ev):

   -73.9633 -69.3595 -42.7173 -42.7121 -42.7109 -38.2009 -38.1965 -38.1818
   -15.5696 -15.5695 -15.5686 -15.5685 -15.5668 -15.5668 -15.5646 -15.5646
   -15.5561 -15.5559 -15.5542 -15.5540 -15.5529 -15.5529 -15.5524 -15.5524
   -15.5489 -15.5489 -15.5476 -15.5475  -5.4803  -5.4516  -5.2870  -5.2436
    -3.7548  -3.5477  -3.3159  -3.0491  -1.6199  -1.3286  -1.0155  -0.7984
     3.6686   4.1046   4.1616   4.2762   4.6646   4.6850   4.8164   4.8286
     5.0989   5.1534   5.4006   5.4160   5.5906   5.6290   5.7379   5.9214
     5.9818   6.0426   6.1272   6.4178   6.4487   6.7242   6.9092   6.9454
     7.0018   7.0144   7.2607   7.4834   7.5381   8.5907   8.6612   8.7548
     8.7889   8.8278   8.9914   9.0015   9.1438   9.2656   9.3317   9.3421
     9.4503   9.5718   9.7287   9.8485  10.1672  10.3550  11.7306  11.8502
    12.1358  12.5653  12.8202  12.8751  12.9196  13.0269  13.1973  13.3894
    13.4512  13.6265  13.8190  13.9071  13.9288  13.9684  14.2022  14.4226
    14.5862  14.7200  14.9408  15.0046  15.1115  15.1791  15.5695  15.8388
    15.9691  16.0896  16.1462  16.2227  16.3623  16.4276  16.4702  16.4833
    16.8236  17.0502  17.1332  17.1623  17.3041  17.4104  17.6962  17.7609
    17.9999  18.1694  18.2503  18.5892  18.7047  18.8304  19.0676  19.1963
    19.3555  19.5106  19.6755  19.8628  20.0591  20.3311  20.6771  20.8362
    20.8932  21.2961  21.4726  21.5348  21.6382  21.8266  21.8497  22.3556
    22.4936  22.7086  22.9656  23.3621  23.4487  23.6994  23.7147  24.2961
    24.5936  24.7930  24.9013  25.1780  25.3041  25.4804  25.6259  26.1726
    26.2384  26.2934  26.3758  26.6187  26.6477  26.7542  26.7598  27.0386
    27.4215  27.5234  27.5743  28.0216  28.0252  28.1397  28.2028  28.3542
    28.3575  28.4707  28.4938  28.5305  28.6317  28.7152  28.7644  28.7835
    28.9358  29.0550  29.0949  29.1033  29.1298  29.2598  29.7048  29.8444

          k = 0.3758 0.6563-0.0600 ( 23456 PWs)   bands (ev):

   -73.9633 -69.3595 -42.7173 -42.7121 -42.7109 -38.2009 -38.1965 -38.1818
   -15.5692 -15.5692 -15.5682 -15.5682 -15.5672 -15.5671 -15.5649 -15.5649
   -15.5565 -15.5563 -15.5545 -15.5543 -15.5528 -15.5528 -15.5525 -15.5525
   -15.5488 -15.5488 -15.5477 -15.5477  -5.5143  -5.4855  -5.3202  -5.2764
    -3.7789  -3.5699  -3.3338  -3.0636  -1.6088  -1.3054  -0.9835  -0.7533
     3.6818   4.1348   4.1877   4.2748   4.7719   4.7881   4.8489   4.8509
     5.1284   5.2985   5.4694   5.5539   5.6512   5.7105   5.8405   5.9854
     6.0475   6.0584   6.1615   6.4845   6.5007   6.7805   6.9141   6.9276
     7.0176   7.0855   7.2809   7.5076   7.5736   8.5776   8.6051   8.7727
     8.7875   8.8247   8.9452   8.9851   9.0335   9.2161   9.2243   9.3562
     9.4324   9.4597   9.5682   9.7624  10.1662  10.2748  11.7588  11.7756
    12.0570  12.6200  12.7790  12.9643  12.9852  13.0511  13.2342  13.3502
    13.4441  13.6075  13.8418  13.8941  13.9048  13.9199  14.1565  14.4561
    14.4996  14.6502  14.8383  14.9174  15.1249  15.2449  15.5551  15.8148
    15.8574  15.9867  16.1090  16.1167  16.1481  16.3607  16.3835  16.4834
    16.5852  16.8227  17.0174  17.2295  17.3191  17.3349  17.6799  17.7658
    17.9094  18.0469  18.0782  18.4687  18.5586  18.8670  19.1341  19.1770
    19.2619  19.3782  19.7770  19.8542  19.8846  20.4446  20.6630  20.6690
    20.7231  21.0377  21.4124  21.4725  21.5881  21.6542  21.9978  22.4518
    22.5296  22.6614  22.7689  23.3779  23.3816  23.4445  23.6528  24.2538
    24.4394  24.7807  24.8058  25.0774  25.4733  25.5789  25.6828  26.1259
    26.2532  26.4127  26.7862  26.8220  26.8699  27.0048  27.0869  27.2194
    27.3211  27.3364  27.6310  28.1353  28.1946  28.3425  28.4217  28.4472
    28.5633  28.6611  28.7022  28.8208  28.8339  28.8666  28.9367  28.9725
    29.0128  29.0792  29.2145  29.2433  29.3363  29.5538  29.7903  29.8991

          k = 0.3131 0.5470-0.0500 ( 23452 PWs)   bands (ev):

   -73.9633 -69.3595 -42.7173 -42.7121 -42.7109 -38.2008 -38.1965 -38.1819
   -15.5690 -15.5689 -15.5680 -15.5679 -15.5674 -15.5674 -15.5652 -15.5652
   -15.5567 -15.5565 -15.5548 -15.5546 -15.5528 -15.5527 -15.5525 -15.5525
   -15.5487 -15.5486 -15.5478 -15.5478  -5.5431  -5.5141  -5.3483  -5.3043
    -3.7996  -3.5890  -3.3492  -3.0761  -1.6000  -1.2862  -0.9569  -0.7151
     3.6906   4.1589   4.2097   4.2720   4.8284   4.8367   4.9037   4.9393
     5.1625   5.4406   5.5636   5.6647   5.7049   5.7803   5.9104   6.0434
     6.0586   6.0749   6.2667   6.5466   6.5597   6.8120   6.8438   6.8748
     7.0803   7.2045   7.2779   7.5334   7.6010   8.5561   8.5812   8.7530
     8.7909   8.8363   8.8924   8.9618   8.9849   9.0582   9.1847   9.3516
     9.3786   9.4260   9.4270   9.6502  10.1685  10.2115  11.7013  11.7852
    11.9832  12.6770  12.7275  12.9868  13.0130  13.1205  13.3118  13.3480
    13.4655  13.5646  13.8511  13.8678  13.8856  13.9146  14.1386  14.4359
    14.4725  14.6032  14.7537  14.8340  15.1932  15.3059  15.5337  15.7206
    15.7560  15.9031  15.9676  16.0600  16.0938  16.2408  16.3157  16.3747
    16.5188  16.6150  16.8958  17.2090  17.2604  17.3403  17.6872  17.7565
    17.8731  17.9735  18.0208  18.2608  18.5276  18.8527  19.0754  19.0773
    19.2103  19.4182  19.6490  19.8514  19.9924  20.5138  20.5725  20.5773
    20.6714  20.7924  21.3640  21.4226  21.5139  21.5476  22.0735  22.4783
    22.5002  22.5465  22.6909  23.1375  23.4583  23.4894  23.5987  24.2155
    24.2997  24.6796  24.8123  24.9271  25.4193  25.7495  25.8925  26.0251
    26.0959  26.6288  26.8872  26.9004  27.0555  27.1203  27.2979  27.3816
    27.5144  27.6105  27.6797  28.1546  28.1792  28.3526  28.5019  28.6230
    28.8375  28.8724  28.9155  28.9257  28.9988  29.1040  29.1120  29.1372
    29.2096  29.2634  29.3390  29.4084  29.6034  29.7159  29.9602  30.1331

          k = 0.2505 0.4376-0.0400 ( 23437 PWs)   bands (ev):

   -73.9633 -69.3595 -42.7172 -42.7121 -42.7109 -38.2008 -38.1965 -38.1819
   -15.5687 -15.5686 -15.5677 -15.5677 -15.5677 -15.5676 -15.5654 -15.5654
   -15.5569 -15.5568 -15.5550 -15.5548 -15.5527 -15.5527 -15.5524 -15.5523
   -15.5486 -15.5485 -15.5479 -15.5478  -5.5668  -5.5377  -5.3714  -5.3272
    -3.8166  -3.6048  -3.3621  -3.0866  -1.5933  -1.2708  -0.9355  -0.6838
     3.6960   4.1785   4.2279   4.2687   4.8453   4.8503   4.9717   5.0510
     5.2131   5.5702   5.6910   5.7359   5.7551   5.8446   5.9431   6.0545
     6.0838   6.1143   6.3745   6.5580   6.6286   6.7749   6.8135   6.8858
     7.1130   7.2505   7.3136   7.5897   7.6112   8.5228   8.5779   8.6793
     8.8002   8.8104   8.8783   8.9289   8.9385   9.0047   9.1446   9.2410
     9.2936   9.3977   9.4160   9.5313  10.1705  10.1721  11.6304  11.8001
    11.9168  12.6795  12.7317  12.9590  13.0105  13.2323  13.3935  13.4075
    13.4868  13.5152  13.8026  13.8771  13.8977  13.9346  14.1101  14.3889
    14.4469  14.5986  14.7129  14.7748  15.2703  15.3278  15.5112  15.5668
    15.6752  15.8395  15.8463  16.0360  16.0602  16.1397  16.1916  16.3081
    16.4342  16.5689  16.8072  17.0739  17.1840  17.3597  17.4959  17.7600
    17.9304  18.0107  18.1100  18.1267  18.4878  18.7290  19.0099  19.0240
    19.2119  19.4475  19.4783  19.8458  20.0231  20.4763  20.5123  20.5355
    20.6846  20.7881  21.3194  21.3714  21.4226  21.5038  22.0488  22.2840
    22.3216  22.6019  22.6769  23.0528  23.5228  23.5904  23.6030  24.1824
    24.1831  24.5650  24.7437  24.8436  25.3228  25.9273  25.9334  25.9731
    26.1024  26.7792  26.8561  26.9236  26.9999  27.0619  27.5086  27.7347
    27.8052  27.8939  27.9506  28.1247  28.1326  28.2208  28.3811  28.8356
    28.9656  29.0837  29.1259  29.1313  29.1636  29.2442  29.3109  29.3582
    29.3799  29.5285  29.5857  29.6298  29.6932  29.8128  30.1708  30.3546

          k = 0.1879 0.3282-0.0300 ( 23457 PWs)   bands (ev):

   -73.9633 -69.3595 -42.7172 -42.7121 -42.7109 -38.2008 -38.1965 -38.1819
   -15.5685 -15.5685 -15.5680 -15.5679 -15.5675 -15.5675 -15.5656 -15.5656
   -15.5572 -15.5569 -15.5552 -15.5550 -15.5528 -15.5527 -15.5524 -15.5523
   -15.5485 -15.5485 -15.5479 -15.5479  -5.5852  -5.5560  -5.3894  -5.3451
    -3.8300  -3.6172  -3.3722  -3.0950  -1.5885  -1.2591  -0.9192  -0.6594
     3.6988   4.1941   4.2422   4.2657   4.8541   4.8577   5.0226   5.1247
     5.3044   5.6912   5.7786   5.7828   5.8618   5.8944   5.9523   6.0323
     6.1146   6.1809   6.3941   6.4977   6.7077   6.7934   6.8076   6.9319
     7.0533   7.2833   7.3998   7.5967   7.6636   8.4752   8.5750   8.6240
     8.6914   8.8124   8.8520   8.9159   8.9194   9.0671   9.1109   9.1287
     9.2108   9.3340   9.4004   9.4574  10.1550  10.1727  11.5671  11.7986
    11.8600  12.6456  12.7607  12.9254  13.0486  13.3445  13.4164  13.4585
    13.4949  13.5202  13.7627  13.8943  13.9151  13.9888  14.0599  14.3511
    14.3949  14.6173  14.7136  14.7508  15.2755  15.2939  15.4707  15.4974
    15.5864  15.7588  15.7750  15.8756  16.0861  16.1473  16.1988  16.2745
    16.2955  16.6147  16.7474  16.9280  17.1037  17.2636  17.2872  17.7937
    17.9254  18.0144  18.2206  18.2855  18.4333  18.5784  18.9964  19.0013
    19.1900  19.3048  19.4754  19.7290  19.9039  20.3256  20.5552  20.6949
    20.7436  20.9373  21.2678  21.3265  21.3765  21.4468  21.9691  22.0541
    22.1282  22.4299  22.7481  23.2042  23.5136  23.6834  23.7149  24.0942
    24.1547  24.4395  24.5430  24.8953  25.2251  25.7995  25.8793  26.1618
    26.2874  26.5679  26.9340  26.9444  27.0628  27.1629  27.5502  27.9578
    27.9997  28.0325  28.0575  28.1499  28.2044  28.2189  28.2758  29.0506
    29.0705  29.2081  29.2643  29.3166  29.3427  29.3932  29.4800  29.5461
    29.5731  29.6811  29.7426  29.8055  29.9019  30.0859  30.3610  30.5725

          k = 0.1253 0.2188-0.0200 ( 23473 PWs)   bands (ev):

   -73.9633 -69.3595 -42.7172 -42.7121 -42.7109 -38.2008 -38.1965 -38.1819
   -15.5684 -15.5684 -15.5681 -15.5680 -15.5674 -15.5674 -15.5658 -15.5657
   -15.5573 -15.5571 -15.5554 -15.5551 -15.5529 -15.5528 -15.5524 -15.5523
   -15.5485 -15.5485 -15.5480 -15.5479  -5.5984  -5.5692  -5.4023  -5.3579
    -3.8397  -3.6261  -3.3795  -3.1010  -1.5852  -1.2508  -0.9076  -0.6419
     3.7002   4.2054   4.2526   4.2634   4.8595   4.8622   5.0552   5.1597
     5.4226   5.7898   5.8069   5.8399   5.9252   5.9478   6.0130   6.0296
     6.1405   6.2229   6.3314   6.4013   6.7619   6.7960   6.8935   6.9460
     7.0017   7.3634   7.4548   7.5552   7.7221   8.4154   8.5671   8.5936
     8.5989   8.8207   8.8435   8.9055   8.9111   9.0121   9.0936   9.1403
     9.1521   9.2609   9.3772   9.4118  10.1567  10.1722  11.5169  11.7852
    11.8156  12.6054  12.8007  12.8967  13.1287  13.3945  13.4063  13.4645
    13.4776  13.6100  13.7346  13.8732  13.9691  14.0322  14.0586  14.3150
    14.3363  14.6380  14.7396  14.7560  15.1738  15.2383  15.4544  15.4808
    15.5026  15.6526  15.7040  15.7852  16.1691  16.1760  16.2211  16.2612
    16.2881  16.6415  16.7067  16.7855  17.0217  17.0932  17.1140  17.8089
    17.9603  18.0171  18.3527  18.4160  18.4266  18.5111  18.9931  19.0140
    19.1505  19.1918  19.4142  19.5547  19.7493  20.2050  20.7110  20.8272
    20.9209  21.0925  21.2233  21.2956  21.3445  21.3654  21.8371  21.8673
    21.9798  22.1502  22.8726  23.3889  23.5316  23.7789  23.8024  24.0351
    24.1303  24.3072  24.3410  24.9618  25.1372  25.6993  25.8385  26.3432
    26.3539  26.4473  26.8694  27.0127  27.2503  27.3036  27.5271  27.8000
    27.9364  27.9394  28.0820  28.2642  28.3105  28.4110  28.4691  29.0665
    29.2560  29.3694  29.4050  29.4211  29.5132  29.5298  29.6006  29.6029
    29.7235  29.7767  29.9487  30.0628  30.1373  30.4060  30.5450  30.6669

          k = 0.0626 0.1094-0.0100 ( 23483 PWs)   bands (ev):

   -73.9633 -69.3595 -42.7172 -42.7121 -42.7109 -38.2008 -38.1965 -38.1819
   -15.5685 -15.5684 -15.5682 -15.5681 -15.5674 -15.5673 -15.5659 -15.5658
   -15.5574 -15.5571 -15.5555 -15.5552 -15.5529 -15.5528 -15.5523 -15.5522
   -15.5485 -15.5484 -15.5480 -15.5479  -5.6064  -5.5770  -5.4101  -5.3655
    -3.8455  -3.6315  -3.3839  -3.1046  -1.5833  -1.2459  -0.9008  -0.6315
     3.7007   4.2122   4.2589   4.2620   4.8626   4.8648   5.0728   5.1765
     5.5255   5.8227   5.8253   5.9245   5.9354   5.9650   6.0100   6.1427
     6.1881   6.1933   6.3056   6.3059   6.6525   6.8785   6.9203   6.9896
     7.0210   7.4478   7.4782   7.5029   7.7427   8.3483   8.5674   8.5727
     8.5883   8.8293   8.8413   8.8900   8.9079   8.9185   9.0247   9.1366
     9.2253   9.2484   9.3448   9.3576  10.1647  10.1710  11.4844  11.7706
    11.7870  12.5732  12.8470  12.8777  13.2220  13.3556  13.3895  13.4289
    13.5305  13.6821  13.7182  13.8481  13.9430  14.1134  14.1293  14.2724
    14.2762  14.6539  14.7693  14.7729  15.0825  15.1943  15.4305  15.4410
    15.4497  15.5824  15.6031  15.8096  16.1014  16.2947  16.3054  16.3099
    16.3399  16.6334  16.6592  16.6738  16.9478  16.9529  16.9802  17.7978
    18.0243  18.0552  18.2689  18.3609  18.6200  18.6496  19.0019  19.0534
    19.0912  19.1250  19.2947  19.3922  19.6249  20.1525  20.8906  20.9331
    21.1189  21.2163  21.2226  21.2568  21.2613  21.3231  21.6743  21.7671
    21.8839  21.8914  22.9470  23.5544  23.5913  23.8473  23.8559  24.0091
    24.0948  24.1605  24.1986  25.0240  25.0736  25.6381  25.8147  26.2207
    26.4841  26.5197  26.8158  27.1436  27.4131  27.4285  27.4867  27.5965
    27.8412  27.8463  27.9968  28.3872  28.4316  28.5290  28.5845  29.0587
    29.3850  29.4058  29.4403  29.5551  29.6149  29.6456  29.6755  29.6807
    29.8866  29.9218  30.1391  30.1954  30.3766  30.5784  30.6172  30.7024

          k = 0.0000 0.0000 0.0000 ( 23485 PWs)   bands (ev):

   -73.9633 -69.3595 -42.7172 -42.7121 -42.7109 -38.2008 -38.1965 -38.1819
   -15.5685 -15.5683 -15.5683 -15.5681 -15.5674 -15.5673 -15.5660 -15.5658
   -15.5575 -15.5572 -15.5555 -15.5552 -15.5529 -15.5527 -15.5523 -15.5522
   -15.5485 -15.5484 -15.5480 -15.5479  -5.6090  -5.5797  -5.4127  -5.3681
    -3.8474  -3.6333  -3.3854  -3.1058  -1.5826  -1.2443  -0.8985  -0.6280
     3.7008   4.2145   4.2610   4.2615   4.8636   4.8656   5.0784   5.1817
     5.5690   5.8310   5.8324   5.9335   5.9339   6.0176   6.0189   6.1478
     6.1481   6.2190   6.3087   6.3096   6.5732   6.9144   6.9150   7.0288
     7.0295   7.4713   7.4881   7.4883   7.7402   8.3182   8.5721   8.5733
     8.5918   8.8414   8.8455   8.8725   8.8729   8.9073   8.9871   9.1438
     9.2703   9.2709   9.3147   9.3153  10.1686  10.1706  11.4731  11.7644
    11.7770  12.5613  12.8687  12.8713  13.2815  13.3407  13.3792  13.3823
    13.5573  13.7124  13.7132  13.8341  13.9293  14.1760  14.1779  14.2317
    14.2323  14.6601  14.7816  14.7823  15.0482  15.1780  15.4168  15.4183
    15.4293  15.5637  15.5656  15.8245  16.0784  16.3269  16.3276  16.3889
    16.3898  16.5925  16.5932  16.6640  16.8982  16.9223  16.9236  17.7916
    18.0725  18.0729  18.2136  18.3358  18.7228  18.7243  19.0231  19.0251
    19.0997  19.0999  19.2146  19.3159  19.5761  20.1397  21.0076  21.0082
    21.1532  21.1799  21.1803  21.2870  21.2887  21.3435  21.6368  21.7168
    21.7179  21.8629  22.9698  23.6341  23.6345  23.8713  23.8729  24.0253
    24.0551  24.0555  24.1666  25.0499  25.0508  25.6176  25.8069  26.1682
    26.5426  26.5433  26.7930  27.2545  27.4591  27.4606  27.4965  27.4968
    27.7881  27.7892  27.9690  28.4271  28.4724  28.5668  28.6218  29.0558
    29.3775  29.4597  29.4609  29.5499  29.6988  29.7006  29.7045  29.7048
    29.9725  29.9730  30.2428  30.2449  30.4646  30.5286  30.6935  30.7709

     Writing all to output data dir ./tmp/MnBi2Te4.save/
 
     init_run     :      0.77s CPU      1.01s WALL (       1 calls)
     electrons    :  14982.12s CPU  15254.88s WALL (       1 calls)

     Called by init_run:
     wfcinit      :      0.00s CPU      0.00s WALL (       1 calls)
     wfcinit:atom :      0.05s CPU      0.06s WALL (     302 calls)
     wfcinit:wfcr :    426.03s CPU    431.40s WALL (     302 calls)
     potinit      :      0.37s CPU      0.48s WALL (       1 calls)
     hinit0       :      0.28s CPU      0.31s WALL (       1 calls)

     Called by electrons:
     c_bands      :  14982.08s CPU  15254.80s WALL (       1 calls)
     v_of_rho     :      0.22s CPU      0.29s WALL (       1 calls)
     v_h          :      0.01s CPU      0.01s WALL (       1 calls)
     v_xc         :      0.21s CPU      0.28s WALL (       1 calls)
     newd         :      0.04s CPU      0.07s WALL (       1 calls)
     PAW_pot      :      0.12s CPU      0.15s WALL (       1 calls)

     Called by c_bands:
     init_us_2    :      0.09s CPU      0.14s WALL (     302 calls)
     init_us_2:cp :      0.09s CPU      0.14s WALL (     302 calls)
     cegterg      :  14553.97s CPU  14820.94s WALL (    1320 calls)

     Called by sum_band:

     Called by *egterg:
     cdiaghg      :    813.52s CPU    842.83s WALL (   23558 calls)
     cegterg:over :    216.05s CPU    282.33s WALL (   23256 calls)
     cegterg:upda :    120.02s CPU    129.62s WALL (   23256 calls)
     cegterg:last :    351.57s CPU    381.24s WALL (    9781 calls)
     cdiaghg:chol :     68.09s CPU     69.08s WALL (   23558 calls)
     cdiaghg:inve :     14.12s CPU     14.23s WALL (   23558 calls)
     cdiaghg:para :    177.01s CPU    194.22s WALL (   47116 calls)
     h_psi        :  13388.04s CPU  13518.76s WALL (   24878 calls)
     s_psi        :     42.91s CPU     43.32s WALL (   24878 calls)
     g_psi        :      1.65s CPU      1.68s WALL (   23256 calls)

     Called by h_psi:
     h_psi:calbec :    129.51s CPU    170.50s WALL (   24878 calls)
     vloc_psi     :  13203.48s CPU  13292.28s WALL (   24878 calls)
     add_vuspsi   :     52.56s CPU     53.41s WALL (   24878 calls)

     General routines
     calbec       :    129.40s CPU    170.43s WALL (   24878 calls)
     fft          :      0.08s CPU      0.12s WALL (      21 calls)
     fftw         :  12510.99s CPU  12593.71s WALL ( 3814324 calls)
     davcio       :      0.12s CPU      0.83s WALL (     604 calls)
 
     Parallel routines

     PAW routines
     PAW_pot      :      0.12s CPU      0.15s WALL (       1 calls)
 
     PWSCF        :      4h44m CPU      4h49m WALL

 
   This run was terminated on:   2: 1:42  16Jun2025            

=------------------------------------------------------------------------------=
   JOB DONE.
=------------------------------------------------------------------------------=
