
     Program PWSCF v.7.2 starts on  2Oct2025 at 16:24:51 

     This program is part of the open-source Quantum ESPRESSO suite
     for quantum simulation of materials; please cite
         "P. Giannozzi et al., J. Phys.:Condens. Matter 21 395502 (2009);
         "P. Giannozzi et al., J. Phys.:Condens. Matter 29 465901 (2017);
         "P. Giannozzi et al., J. Chem. Phys. 152 154105 (2020);
          URL http://www.quantum-espresso.org", 
     in publications or presentations arising from this work. More details at
     http://www.quantum-espresso.org/quote

     Parallel version (MPI), running on    64 processors

     MPI processes distributed on     1 nodes
     157148 MiB available memory on the printing compute node when the environment starts
 
     Reading input from MnBi2Te4.nscf.in

     Current dimensions of program PWSCF are:
     Max number of different atomic species (ntypx) = 10
     Max number of k-points (npk) =  40000
     Max angular momentum in pseudopotentials (lmaxx) =  4
     Message from routine input:
     WARNING: "startingwfc" set to atomic+random may spoil restart
     file Mn.rel-pbe-spn-kjpaw_psl.0.3.1.UPF: wavefunction(s)  3P 3P 3D renormalized
     file Mn.rel-pbe-spn-kjpaw_psl.0.3.1.UPF: wavefunction(s)  3P 3P 3D renormalized
     file Bi.rel-pbe-dn-kjpaw_psl.1.0.0.UPF: wavefunction(s)  6P 6P 5D 5D renormalized
     file Te.rel-pbe-n-kjpaw_psl.1.0.0.UPF: wavefunction(s)  5S 5P 5P renormalized

     Fixed quantization axis for GGA:     0.000000    0.000000    1.000000
 
     R & G space division:  proc/nbgrp/npool/nimage =      64
     Subspace diagonalization in iterative solution of the eigenvalue problem:
     one sub-group per band group will be used
     scalapack distributed-memory algorithm (size of sub-group:  2*  2 procs)

 
     Parallelization info
     --------------------
     sticks:   dense  smooth     PW     G-vecs:    dense   smooth      PW
     Min         126     126     38                 2936     2936     488
     Max         127     127     39                 2938     2938     489
     Sum        8079    8079   2441               187971   187971   31237
 
     Using Slab Decomposition
 


     bravais-lattice index     =            0
     lattice parameter (alat)  =      51.7756  a.u.
     unit-cell volume          =    2994.5794 (a.u.)^3
     number of atoms/cell      =           14
     number of atomic types    =            4
     number of electrons       =       138.00
     number of Kohn-Sham states=          240
     kinetic-energy cutoff     =      60.0000  Ry
     charge density cutoff     =     240.0000  Ry
     Exchange-correlation= SLA  PW   PBX  PBC
                           (   1   4   3   4   0   0   0)
     Noncollinear calculation with spin-orbit

     Hubbard projectors: ortho-atomic
     Hubbard parameters of DFT+U (Liechtenstein formulation) in eV:
     U(Mn1-3d) =  4.0000
     U(Mn2-3d) =  4.0000
     DFT+U on averaged j=l+1/2,l-1/2 radial WFs

     Internal variables: lda_plus_u = T, lda_plus_u_kind = 1

     celldm(1)=  51.775642  celldm(2)=   0.000000  celldm(3)=   0.000000
     celldm(4)=   0.000000  celldm(5)=   0.000000  celldm(6)=   0.000000

     crystal axes: (cart. coord. in units of alat)
               a(1) = (   0.079085  -0.045660   0.995822 )  
               a(2) = (   0.000000   0.091319   0.995822 )  
               a(3) = (  -0.079085  -0.045660   0.995822 )  

     reciprocal axes: (cart. coord. in units 2 pi/alat)
               b(1) = (  6.322314 -3.650196  0.334731 )  
               b(2) = (  0.000000  7.300392  0.334734 )  
               b(3) = ( -6.322314 -3.650196  0.334731 )  


     PseudoPot. # 1 for Mn read from file:
     ./Mn.rel-pbe-spn-kjpaw_psl.0.3.1.UPF
     MD5 check sum: dfba1c7561257014502ac20495784078
     Pseudo is Projector augmented-wave + core cor, Zval = 15.0
     Generated using &quot;atomic&quot; code by A. Dal Corso  v.6.2.2
     Shape of augmentation charge: PSQ
     Using radial grid of 1187 points, 10 beta functions with: 
                l(1) =   0
                l(2) =   0
                l(3) =   1
                l(4) =   1
                l(5) =   1
                l(6) =   1
                l(7) =   2
                l(8) =   2
                l(9) =   2
               l(10) =   2
     Q(r) pseudized with 0 coefficients 


     PseudoPot. # 2 for Mn read from file:
     ./Mn.rel-pbe-spn-kjpaw_psl.0.3.1.UPF
     MD5 check sum: dfba1c7561257014502ac20495784078
     Pseudo is Projector augmented-wave + core cor, Zval = 15.0
     Generated using &quot;atomic&quot; code by A. Dal Corso  v.6.2.2
     Shape of augmentation charge: PSQ
     Using radial grid of 1187 points, 10 beta functions with: 
                l(1) =   0
                l(2) =   0
                l(3) =   1
                l(4) =   1
                l(5) =   1
                l(6) =   1
                l(7) =   2
                l(8) =   2
                l(9) =   2
               l(10) =   2
     Q(r) pseudized with 0 coefficients 


     PseudoPot. # 3 for Bi read from file:
     ./Bi.rel-pbe-dn-kjpaw_psl.1.0.0.UPF
     MD5 check sum: 8010b987e9fb97324c8de82fb26a3f7d
     Pseudo is Projector augmented-wave + core cor, Zval = 15.0
     Generated using &quot;atomic&quot; code by A. Dal Corso  v.6.2.2
     Shape of augmentation charge: PSQ
     Using radial grid of 1283 points, 10 beta functions with: 
                l(1) =   0
                l(2) =   0
                l(3) =   1
                l(4) =   1
                l(5) =   1
                l(6) =   1
                l(7) =   2
                l(8) =   2
                l(9) =   2
               l(10) =   2
     Q(r) pseudized with 0 coefficients 


     PseudoPot. # 4 for Te read from file:
     ./Te.rel-pbe-n-kjpaw_psl.1.0.0.UPF
     MD5 check sum: 8399411061dffbb19b40ade5049f5146
     Pseudo is Projector augmented-wave + core cor, Zval =  6.0
     Generated using &quot;atomic&quot; code by A. Dal Corso  v.6.3
     Shape of augmentation charge: PSQ
     Using radial grid of 1245 points, 10 beta functions with: 
                l(1) =   0
                l(2) =   0
                l(3) =   1
                l(4) =   1
                l(5) =   1
                l(6) =   1
                l(7) =   2
                l(8) =   2
                l(9) =   2
               l(10) =   2
     Q(r) pseudized with 0 coefficients 


     atomic species   valence    mass     pseudopotential
        Mn1           15.00    54.93800     Mn( 1.00)
        Mn2           15.00    54.93800     Mn( 1.00)
        Bi            15.00   208.98000     Bi( 1.00)
        Te             6.00   127.60300     Te( 1.00)

     No symmetry found


                                    s                        frac. trans.

      isym =  1     identity                                     

 Time Reversal            0
 cryst.   s( 1) = (     1          0          0      )
                  (     0          1          0      )
                  (     0          0          1      )

 cart.    s( 1) = (  1.0000000  0.0000000  0.0000000 )
                  (  0.0000000  1.0000000 -0.0000000 )
                  (  0.0000000  0.0000000  1.0000000 )


   Cartesian axes

     site n.     atom                  positions (alat units)
         1           Mn1 tau(   1) = (   0.0000000   0.0000000   0.0000000  )
         2           Mn2 tau(   2) = (   0.0000000  -0.0000005   1.4937325  )
         3           Bi  tau(   3) = (   0.0000000  -0.0000002   0.6346869  )
         4           Bi  tau(   4) = (   0.0000000  -0.0000007   2.1284194  )
         5           Bi  tau(   5) = (   0.0000000  -0.0000003   0.8590455  )
         6           Bi  tau(   6) = (   0.0000000  -0.0000008   2.3527780  )
         7           Te  tau(   7) = (   0.0000000  -0.0000001   0.1992042  )
         8           Te  tau(   8) = (   0.0000000  -0.0000006   1.6929366  )
         9           Te  tau(   9) = (   0.0000000  -0.0000004   1.2945283  )
        10           Te  tau(  10) = (   0.0000000  -0.0000009   2.7882608  )
        11           Te  tau(  11) = (   0.0000000  -0.0000001   0.4392470  )
        12           Te  tau(  12) = (   0.0000000  -0.0000006   1.9329794  )
        13           Te  tau(  13) = (   0.0000000  -0.0000004   1.0544855  )
        14           Te  tau(  14) = (   0.0000000  -0.0000009   2.5482179  )

     --------------------------------------------
     DFT-D3 Dispersion Correction (3-body terms):
     --------------------------------------------
       Reference C6 values for interpolation: 

         atom   Coordination number   C6
         Mn1        0.000          1605.50
         Mn1        1.641           479.11
         Mn1        9.885           227.69
         Mn2        0.000          1605.50
         Mn2        1.641           479.11
         Mn2        9.885           227.69
         Te         0.000           851.07
         Te         0.981           850.20
         Te         1.964           837.16
         Bi         0.000          1235.06
         Bi         0.982          1188.09
         Bi         1.966          1132.10
         Bi         2.950          1067.76

       Values used:

         atom   Coordination number  R0_AB[au]  C6      C8
         Mn1        3.848            3.351    479.11  48433.79
         Mn2        3.848            3.351    479.11  48433.79
         Bi         5.275            3.890   1067.76 147315.96
         Bi         5.275            3.890   1067.76 147315.96
         Bi         5.275            3.890   1067.76 147315.96
         Bi         5.275            3.890   1067.76 147315.96
         Te         3.328            3.676    837.16  84978.06
         Te         3.328            3.676    837.16  84978.06
         Te         3.328            3.676    837.16  84978.06
         Te         3.328            3.676    837.16  84978.06
         Te         4.238            3.676    837.16  84978.05
         Te         4.238            3.676    837.16  84978.05
         Te         4.238            3.676    837.16  84978.05
         Te         4.238            3.676    837.16  84978.05

         Molecular C6 ( Ry / a.u.^6 ) =    164642.77


   Crystallographic axes

     site n.     atom                  positions (cryst. coord.)
         1           Mn1 tau(   1) = (  0.0000000  0.0000000  0.0000000  )
         2           Mn2 tau(   2) = (  0.5000000  0.5000000  0.5000000  )
         3           Bi  tau(   3) = (  0.2124500  0.2124500  0.2124500  )
         4           Bi  tau(   4) = (  0.7124500  0.7124500  0.7124500  )
         5           Bi  tau(   5) = (  0.2875500  0.2875500  0.2875500  )
         6           Bi  tau(   6) = (  0.7875500  0.7875500  0.7875500  )
         7           Te  tau(   7) = (  0.0666800  0.0666800  0.0666800  )
         8           Te  tau(   8) = (  0.5666800  0.5666800  0.5666800  )
         9           Te  tau(   9) = (  0.4333200  0.4333200  0.4333200  )
        10           Te  tau(  10) = (  0.9333200  0.9333200  0.9333200  )
        11           Te  tau(  11) = (  0.1470300  0.1470300  0.1470300  )
        12           Te  tau(  12) = (  0.6470300  0.6470300  0.6470300  )
        13           Te  tau(  13) = (  0.3529700  0.3529700  0.3529700  )
        14           Te  tau(  14) = (  0.8529700  0.8529700  0.8529700  )

     number of k points=   512  Marzari-Vanderbilt smearing, width (Ry)=  0.0200
                       cart. coord. in units 2pi/alat
        k(    1) = (   0.0000000   0.0000000   0.0000000), wk =   0.0019531
        k(    2) = (  -0.7902892  -0.4562745   0.0418413), wk =   0.0019531
        k(    3) = (  -1.5805784  -0.9125490   0.0836827), wk =   0.0019531
        k(    4) = (  -2.3708677  -1.3688235   0.1255240), wk =   0.0019531
        k(    5) = (  -3.1611569  -1.8250979   0.1673654), wk =   0.0019531
        k(    6) = (  -3.9514461  -2.2813724   0.2092067), wk =   0.0019531
        k(    7) = (  -4.7417353  -2.7376469   0.2510481), wk =   0.0019531
        k(    8) = (  -5.5320245  -3.1939214   0.2928894), wk =   0.0019531
        k(    9) = (   0.0000000   0.9125490   0.0418418), wk =   0.0019531
        k(   10) = (  -0.7902892   0.4562745   0.0836831), wk =   0.0019531
        k(   11) = (  -1.5805784   0.0000000   0.1255245), wk =   0.0019531
        k(   12) = (  -2.3708677  -0.4562745   0.1673658), wk =   0.0019531
        k(   13) = (  -3.1611569  -0.9125490   0.2092072), wk =   0.0019531
        k(   14) = (  -3.9514461  -1.3688235   0.2510485), wk =   0.0019531
        k(   15) = (  -4.7417353  -1.8250979   0.2928899), wk =   0.0019531
        k(   16) = (  -5.5320245  -2.2813724   0.3347312), wk =   0.0019531
        k(   17) = (   0.0000000   1.8250979   0.0836836), wk =   0.0019531
        k(   18) = (  -0.7902892   1.3688235   0.1255249), wk =   0.0019531
        k(   19) = (  -1.5805784   0.9125490   0.1673663), wk =   0.0019531
        k(   20) = (  -2.3708677   0.4562745   0.2092076), wk =   0.0019531
        k(   21) = (  -3.1611569   0.0000000   0.2510490), wk =   0.0019531
        k(   22) = (  -3.9514461  -0.4562745   0.2928903), wk =   0.0019531
        k(   23) = (  -4.7417353  -0.9125490   0.3347317), wk =   0.0019531
        k(   24) = (  -5.5320245  -1.3688235   0.3765730), wk =   0.0019531
        k(   25) = (   0.0000000   2.7376469   0.1255254), wk =   0.0019531
        k(   26) = (  -0.7902892   2.2813724   0.1673667), wk =   0.0019531
        k(   27) = (  -1.5805784   1.8250979   0.2092081), wk =   0.0019531
        k(   28) = (  -2.3708677   1.3688235   0.2510494), wk =   0.0019531
        k(   29) = (  -3.1611569   0.9125490   0.2928908), wk =   0.0019531
        k(   30) = (  -3.9514461   0.4562745   0.3347321), wk =   0.0019531
        k(   31) = (  -4.7417353   0.0000000   0.3765735), wk =   0.0019531
        k(   32) = (  -5.5320245  -0.4562745   0.4184148), wk =   0.0019531
        k(   33) = (   0.0000000   3.6501959   0.1673672), wk =   0.0019531
        k(   34) = (  -0.7902892   3.1939214   0.2092085), wk =   0.0019531
        k(   35) = (  -1.5805784   2.7376469   0.2510499), wk =   0.0019531
        k(   36) = (  -2.3708677   2.2813724   0.2928912), wk =   0.0019531
        k(   37) = (  -3.1611569   1.8250979   0.3347326), wk =   0.0019531
        k(   38) = (  -3.9514461   1.3688235   0.3765739), wk =   0.0019531
        k(   39) = (  -4.7417353   0.9125490   0.4184153), wk =   0.0019531
        k(   40) = (  -5.5320245   0.4562745   0.4602566), wk =   0.0019531
        k(   41) = (   0.0000000   4.5627449   0.2092090), wk =   0.0019531
        k(   42) = (  -0.7902892   4.1064704   0.2510503), wk =   0.0019531
        k(   43) = (  -1.5805784   3.6501959   0.2928917), wk =   0.0019531
        k(   44) = (  -2.3708677   3.1939214   0.3347330), wk =   0.0019531
        k(   45) = (  -3.1611569   2.7376469   0.3765744), wk =   0.0019531
        k(   46) = (  -3.9514461   2.2813724   0.4184157), wk =   0.0019531
        k(   47) = (  -4.7417353   1.8250979   0.4602571), wk =   0.0019531
        k(   48) = (  -5.5320245   1.3688235   0.5020984), wk =   0.0019531
        k(   49) = (   0.0000000   5.4752938   0.2510508), wk =   0.0019531
        k(   50) = (  -0.7902892   5.0190193   0.2928921), wk =   0.0019531
        k(   51) = (  -1.5805784   4.5627449   0.3347335), wk =   0.0019531
        k(   52) = (  -2.3708677   4.1064704   0.3765748), wk =   0.0019531
        k(   53) = (  -3.1611569   3.6501959   0.4184162), wk =   0.0019531
        k(   54) = (  -3.9514461   3.1939214   0.4602575), wk =   0.0019531
        k(   55) = (  -4.7417353   2.7376469   0.5020989), wk =   0.0019531
        k(   56) = (  -5.5320245   2.2813724   0.5439402), wk =   0.0019531
        k(   57) = (   0.0000000   6.3878428   0.2928926), wk =   0.0019531
        k(   58) = (  -0.7902892   5.9315683   0.3347340), wk =   0.0019531
        k(   59) = (  -1.5805784   5.4752938   0.3765753), wk =   0.0019531
        k(   60) = (  -2.3708677   5.0190193   0.4184166), wk =   0.0019531
        k(   61) = (  -3.1611569   4.5627449   0.4602580), wk =   0.0019531
        k(   62) = (  -3.9514461   4.1064704   0.5020993), wk =   0.0019531
        k(   63) = (  -4.7417353   3.6501959   0.5439407), wk =   0.0019531
        k(   64) = (  -5.5320245   3.1939214   0.5857820), wk =   0.0019531
        k(   65) = (   0.7902892  -0.4562745   0.0418413), wk =   0.0019531
        k(   66) = (   0.0000000  -0.9125490   0.0836827), wk =   0.0019531
        k(   67) = (  -0.7902892  -1.3688235   0.1255240), wk =   0.0019531
        k(   68) = (  -1.5805784  -1.8250979   0.1673654), wk =   0.0019531
        k(   69) = (  -2.3708677  -2.2813724   0.2092067), wk =   0.0019531
        k(   70) = (  -3.1611569  -2.7376469   0.2510481), wk =   0.0019531
        k(   71) = (  -3.9514461  -3.1939214   0.2928894), wk =   0.0019531
        k(   72) = (  -4.7417353  -3.6501959   0.3347307), wk =   0.0019531
        k(   73) = (   0.7902892   0.4562745   0.0836831), wk =   0.0019531
        k(   74) = (   0.0000000   0.0000000   0.1255245), wk =   0.0019531
        k(   75) = (  -0.7902892  -0.4562745   0.1673658), wk =   0.0019531
        k(   76) = (  -1.5805784  -0.9125490   0.2092072), wk =   0.0019531
        k(   77) = (  -2.3708677  -1.3688235   0.2510485), wk =   0.0019531
        k(   78) = (  -3.1611569  -1.8250979   0.2928899), wk =   0.0019531
        k(   79) = (  -3.9514461  -2.2813724   0.3347312), wk =   0.0019531
        k(   80) = (  -4.7417353  -2.7376469   0.3765725), wk =   0.0019531
        k(   81) = (   0.7902892   1.3688235   0.1255249), wk =   0.0019531
        k(   82) = (   0.0000000   0.9125490   0.1673663), wk =   0.0019531
        k(   83) = (  -0.7902892   0.4562745   0.2092076), wk =   0.0019531
        k(   84) = (  -1.5805784   0.0000000   0.2510490), wk =   0.0019531
        k(   85) = (  -2.3708677  -0.4562745   0.2928903), wk =   0.0019531
        k(   86) = (  -3.1611569  -0.9125490   0.3347317), wk =   0.0019531
        k(   87) = (  -3.9514461  -1.3688235   0.3765730), wk =   0.0019531
        k(   88) = (  -4.7417353  -1.8250979   0.4184143), wk =   0.0019531
        k(   89) = (   0.7902892   2.2813724   0.1673667), wk =   0.0019531
        k(   90) = (   0.0000000   1.8250979   0.2092081), wk =   0.0019531
        k(   91) = (  -0.7902892   1.3688235   0.2510494), wk =   0.0019531
        k(   92) = (  -1.5805784   0.9125490   0.2928908), wk =   0.0019531
        k(   93) = (  -2.3708677   0.4562745   0.3347321), wk =   0.0019531
        k(   94) = (  -3.1611569   0.0000000   0.3765735), wk =   0.0019531
        k(   95) = (  -3.9514461  -0.4562745   0.4184148), wk =   0.0019531
        k(   96) = (  -4.7417353  -0.9125490   0.4602561), wk =   0.0019531
        k(   97) = (   0.7902892   3.1939214   0.2092085), wk =   0.0019531
        k(   98) = (   0.0000000   2.7376469   0.2510499), wk =   0.0019531
        k(   99) = (  -0.7902892   2.2813724   0.2928912), wk =   0.0019531
        k(  100) = (  -1.5805784   1.8250979   0.3347326), wk =   0.0019531
        k(  101) = (  -2.3708677   1.3688235   0.3765739), wk =   0.0019531
        k(  102) = (  -3.1611569   0.9125490   0.4184153), wk =   0.0019531
        k(  103) = (  -3.9514461   0.4562745   0.4602566), wk =   0.0019531
        k(  104) = (  -4.7417353   0.0000000   0.5020979), wk =   0.0019531
        k(  105) = (   0.7902892   4.1064704   0.2510503), wk =   0.0019531
        k(  106) = (   0.0000000   3.6501959   0.2928917), wk =   0.0019531
        k(  107) = (  -0.7902892   3.1939214   0.3347330), wk =   0.0019531
        k(  108) = (  -1.5805784   2.7376469   0.3765744), wk =   0.0019531
        k(  109) = (  -2.3708677   2.2813724   0.4184157), wk =   0.0019531
        k(  110) = (  -3.1611569   1.8250979   0.4602571), wk =   0.0019531
        k(  111) = (  -3.9514461   1.3688235   0.5020984), wk =   0.0019531
        k(  112) = (  -4.7417353   0.9125490   0.5439397), wk =   0.0019531
        k(  113) = (   0.7902892   5.0190193   0.2928921), wk =   0.0019531
        k(  114) = (   0.0000000   4.5627449   0.3347335), wk =   0.0019531
        k(  115) = (  -0.7902892   4.1064704   0.3765748), wk =   0.0019531
        k(  116) = (  -1.5805784   3.6501959   0.4184162), wk =   0.0019531
        k(  117) = (  -2.3708677   3.1939214   0.4602575), wk =   0.0019531
        k(  118) = (  -3.1611569   2.7376469   0.5020989), wk =   0.0019531
        k(  119) = (  -3.9514461   2.2813724   0.5439402), wk =   0.0019531
        k(  120) = (  -4.7417353   1.8250979   0.5857815), wk =   0.0019531
        k(  121) = (   0.7902892   5.9315683   0.3347340), wk =   0.0019531
        k(  122) = (   0.0000000   5.4752938   0.3765753), wk =   0.0019531
        k(  123) = (  -0.7902892   5.0190193   0.4184166), wk =   0.0019531
        k(  124) = (  -1.5805784   4.5627449   0.4602580), wk =   0.0019531
        k(  125) = (  -2.3708677   4.1064704   0.5020993), wk =   0.0019531
        k(  126) = (  -3.1611569   3.6501959   0.5439407), wk =   0.0019531
        k(  127) = (  -3.9514461   3.1939214   0.5857820), wk =   0.0019531
        k(  128) = (  -4.7417353   2.7376469   0.6276234), wk =   0.0019531
        k(  129) = (   1.5805784  -0.9125490   0.0836827), wk =   0.0019531
        k(  130) = (   0.7902892  -1.3688235   0.1255240), wk =   0.0019531
        k(  131) = (   0.0000000  -1.8250979   0.1673654), wk =   0.0019531
        k(  132) = (  -0.7902892  -2.2813724   0.2092067), wk =   0.0019531
        k(  133) = (  -1.5805784  -2.7376469   0.2510481), wk =   0.0019531
        k(  134) = (  -2.3708677  -3.1939214   0.2928894), wk =   0.0019531
        k(  135) = (  -3.1611569  -3.6501959   0.3347307), wk =   0.0019531
        k(  136) = (  -3.9514461  -4.1064704   0.3765721), wk =   0.0019531
        k(  137) = (   1.5805784   0.0000000   0.1255245), wk =   0.0019531
        k(  138) = (   0.7902892  -0.4562745   0.1673658), wk =   0.0019531
        k(  139) = (   0.0000000  -0.9125490   0.2092072), wk =   0.0019531
        k(  140) = (  -0.7902892  -1.3688235   0.2510485), wk =   0.0019531
        k(  141) = (  -1.5805784  -1.8250979   0.2928899), wk =   0.0019531
        k(  142) = (  -2.3708677  -2.2813724   0.3347312), wk =   0.0019531
        k(  143) = (  -3.1611569  -2.7376469   0.3765725), wk =   0.0019531
        k(  144) = (  -3.9514461  -3.1939214   0.4184139), wk =   0.0019531
        k(  145) = (   1.5805784   0.9125490   0.1673663), wk =   0.0019531
        k(  146) = (   0.7902892   0.4562745   0.2092076), wk =   0.0019531
        k(  147) = (   0.0000000   0.0000000   0.2510490), wk =   0.0019531
        k(  148) = (  -0.7902892  -0.4562745   0.2928903), wk =   0.0019531
        k(  149) = (  -1.5805784  -0.9125490   0.3347317), wk =   0.0019531
        k(  150) = (  -2.3708677  -1.3688235   0.3765730), wk =   0.0019531
        k(  151) = (  -3.1611569  -1.8250979   0.4184143), wk =   0.0019531
        k(  152) = (  -3.9514461  -2.2813724   0.4602557), wk =   0.0019531
        k(  153) = (   1.5805784   1.8250979   0.2092081), wk =   0.0019531
        k(  154) = (   0.7902892   1.3688235   0.2510494), wk =   0.0019531
        k(  155) = (   0.0000000   0.9125490   0.2928908), wk =   0.0019531
        k(  156) = (  -0.7902892   0.4562745   0.3347321), wk =   0.0019531
        k(  157) = (  -1.5805784  -0.0000000   0.3765735), wk =   0.0019531
        k(  158) = (  -2.3708677  -0.4562745   0.4184148), wk =   0.0019531
        k(  159) = (  -3.1611569  -0.9125490   0.4602561), wk =   0.0019531
        k(  160) = (  -3.9514461  -1.3688235   0.5020975), wk =   0.0019531
        k(  161) = (   1.5805784   2.7376469   0.2510499), wk =   0.0019531
        k(  162) = (   0.7902892   2.2813724   0.2928912), wk =   0.0019531
        k(  163) = (   0.0000000   1.8250979   0.3347326), wk =   0.0019531
        k(  164) = (  -0.7902892   1.3688235   0.3765739), wk =   0.0019531
        k(  165) = (  -1.5805784   0.9125490   0.4184153), wk =   0.0019531
        k(  166) = (  -2.3708677   0.4562745   0.4602566), wk =   0.0019531
        k(  167) = (  -3.1611569   0.0000000   0.5020979), wk =   0.0019531
        k(  168) = (  -3.9514461  -0.4562745   0.5439393), wk =   0.0019531
        k(  169) = (   1.5805784   3.6501959   0.2928917), wk =   0.0019531
        k(  170) = (   0.7902892   3.1939214   0.3347330), wk =   0.0019531
        k(  171) = (   0.0000000   2.7376469   0.3765744), wk =   0.0019531
        k(  172) = (  -0.7902892   2.2813724   0.4184157), wk =   0.0019531
        k(  173) = (  -1.5805784   1.8250979   0.4602571), wk =   0.0019531
        k(  174) = (  -2.3708677   1.3688235   0.5020984), wk =   0.0019531
        k(  175) = (  -3.1611569   0.9125490   0.5439397), wk =   0.0019531
        k(  176) = (  -3.9514461   0.4562745   0.5857811), wk =   0.0019531
        k(  177) = (   1.5805784   4.5627449   0.3347335), wk =   0.0019531
        k(  178) = (   0.7902892   4.1064704   0.3765748), wk =   0.0019531
        k(  179) = (   0.0000000   3.6501959   0.4184162), wk =   0.0019531
        k(  180) = (  -0.7902892   3.1939214   0.4602575), wk =   0.0019531
        k(  181) = (  -1.5805784   2.7376469   0.5020989), wk =   0.0019531
        k(  182) = (  -2.3708677   2.2813724   0.5439402), wk =   0.0019531
        k(  183) = (  -3.1611569   1.8250979   0.5857815), wk =   0.0019531
        k(  184) = (  -3.9514461   1.3688235   0.6276229), wk =   0.0019531
        k(  185) = (   1.5805784   5.4752938   0.3765753), wk =   0.0019531
        k(  186) = (   0.7902892   5.0190193   0.4184166), wk =   0.0019531
        k(  187) = (   0.0000000   4.5627449   0.4602580), wk =   0.0019531
        k(  188) = (  -0.7902892   4.1064704   0.5020993), wk =   0.0019531
        k(  189) = (  -1.5805784   3.6501959   0.5439407), wk =   0.0019531
        k(  190) = (  -2.3708677   3.1939214   0.5857820), wk =   0.0019531
        k(  191) = (  -3.1611569   2.7376469   0.6276234), wk =   0.0019531
        k(  192) = (  -3.9514461   2.2813724   0.6694647), wk =   0.0019531
        k(  193) = (   2.3708677  -1.3688235   0.1255240), wk =   0.0019531
        k(  194) = (   1.5805784  -1.8250979   0.1673654), wk =   0.0019531
        k(  195) = (   0.7902892  -2.2813724   0.2092067), wk =   0.0019531
        k(  196) = (   0.0000000  -2.7376469   0.2510481), wk =   0.0019531
        k(  197) = (  -0.7902892  -3.1939214   0.2928894), wk =   0.0019531
        k(  198) = (  -1.5805784  -3.6501959   0.3347307), wk =   0.0019531
        k(  199) = (  -2.3708677  -4.1064704   0.3765721), wk =   0.0019531
        k(  200) = (  -3.1611569  -4.5627449   0.4184134), wk =   0.0019531
        k(  201) = (   2.3708677  -0.4562745   0.1673658), wk =   0.0019531
        k(  202) = (   1.5805784  -0.9125490   0.2092072), wk =   0.0019531
        k(  203) = (   0.7902892  -1.3688235   0.2510485), wk =   0.0019531
        k(  204) = (   0.0000000  -1.8250979   0.2928899), wk =   0.0019531
        k(  205) = (  -0.7902892  -2.2813724   0.3347312), wk =   0.0019531
        k(  206) = (  -1.5805784  -2.7376469   0.3765725), wk =   0.0019531
        k(  207) = (  -2.3708677  -3.1939214   0.4184139), wk =   0.0019531
        k(  208) = (  -3.1611569  -3.6501959   0.4602552), wk =   0.0019531
        k(  209) = (   2.3708677   0.4562745   0.2092076), wk =   0.0019531
        k(  210) = (   1.5805784   0.0000000   0.2510490), wk =   0.0019531
        k(  211) = (   0.7902892  -0.4562745   0.2928903), wk =   0.0019531
        k(  212) = (   0.0000000  -0.9125490   0.3347317), wk =   0.0019531
        k(  213) = (  -0.7902892  -1.3688235   0.3765730), wk =   0.0019531
        k(  214) = (  -1.5805784  -1.8250979   0.4184143), wk =   0.0019531
        k(  215) = (  -2.3708677  -2.2813724   0.4602557), wk =   0.0019531
        k(  216) = (  -3.1611569  -2.7376469   0.5020970), wk =   0.0019531
        k(  217) = (   2.3708677   1.3688235   0.2510494), wk =   0.0019531
        k(  218) = (   1.5805784   0.9125490   0.2928908), wk =   0.0019531
        k(  219) = (   0.7902892   0.4562745   0.3347321), wk =   0.0019531
        k(  220) = (   0.0000000   0.0000000   0.3765735), wk =   0.0019531
        k(  221) = (  -0.7902892  -0.4562745   0.4184148), wk =   0.0019531
        k(  222) = (  -1.5805784  -0.9125490   0.4602561), wk =   0.0019531
        k(  223) = (  -2.3708677  -1.3688235   0.5020975), wk =   0.0019531
        k(  224) = (  -3.1611569  -1.8250979   0.5439388), wk =   0.0019531
        k(  225) = (   2.3708677   2.2813724   0.2928912), wk =   0.0019531
        k(  226) = (   1.5805784   1.8250979   0.3347326), wk =   0.0019531
        k(  227) = (   0.7902892   1.3688235   0.3765739), wk =   0.0019531
        k(  228) = (   0.0000000   0.9125490   0.4184153), wk =   0.0019531
        k(  229) = (  -0.7902892   0.4562745   0.4602566), wk =   0.0019531
        k(  230) = (  -1.5805784   0.0000000   0.5020979), wk =   0.0019531
        k(  231) = (  -2.3708677  -0.4562745   0.5439393), wk =   0.0019531
        k(  232) = (  -3.1611569  -0.9125490   0.5857806), wk =   0.0019531
        k(  233) = (   2.3708677   3.1939214   0.3347330), wk =   0.0019531
        k(  234) = (   1.5805784   2.7376469   0.3765744), wk =   0.0019531
        k(  235) = (   0.7902892   2.2813724   0.4184157), wk =   0.0019531
        k(  236) = (   0.0000000   1.8250979   0.4602571), wk =   0.0019531
        k(  237) = (  -0.7902892   1.3688235   0.5020984), wk =   0.0019531
        k(  238) = (  -1.5805784   0.9125490   0.5439397), wk =   0.0019531
        k(  239) = (  -2.3708677   0.4562745   0.5857811), wk =   0.0019531
        k(  240) = (  -3.1611569   0.0000000   0.6276224), wk =   0.0019531
        k(  241) = (   2.3708677   4.1064704   0.3765748), wk =   0.0019531
        k(  242) = (   1.5805784   3.6501959   0.4184162), wk =   0.0019531
        k(  243) = (   0.7902892   3.1939214   0.4602575), wk =   0.0019531
        k(  244) = (   0.0000000   2.7376469   0.5020989), wk =   0.0019531
        k(  245) = (  -0.7902892   2.2813724   0.5439402), wk =   0.0019531
        k(  246) = (  -1.5805784   1.8250979   0.5857815), wk =   0.0019531
        k(  247) = (  -2.3708677   1.3688235   0.6276229), wk =   0.0019531
        k(  248) = (  -3.1611569   0.9125490   0.6694642), wk =   0.0019531
        k(  249) = (   2.3708677   5.0190193   0.4184166), wk =   0.0019531
        k(  250) = (   1.5805784   4.5627449   0.4602580), wk =   0.0019531
        k(  251) = (   0.7902892   4.1064704   0.5020993), wk =   0.0019531
        k(  252) = (   0.0000000   3.6501959   0.5439407), wk =   0.0019531
        k(  253) = (  -0.7902892   3.1939214   0.5857820), wk =   0.0019531
        k(  254) = (  -1.5805784   2.7376469   0.6276234), wk =   0.0019531
        k(  255) = (  -2.3708677   2.2813724   0.6694647), wk =   0.0019531
        k(  256) = (  -3.1611569   1.8250979   0.7113060), wk =   0.0019531
        k(  257) = (   3.1611569  -1.8250979   0.1673654), wk =   0.0019531
        k(  258) = (   2.3708677  -2.2813724   0.2092067), wk =   0.0019531
        k(  259) = (   1.5805784  -2.7376469   0.2510481), wk =   0.0019531
        k(  260) = (   0.7902892  -3.1939214   0.2928894), wk =   0.0019531
        k(  261) = (   0.0000000  -3.6501959   0.3347307), wk =   0.0019531
        k(  262) = (  -0.7902892  -4.1064704   0.3765721), wk =   0.0019531
        k(  263) = (  -1.5805784  -4.5627449   0.4184134), wk =   0.0019531
        k(  264) = (  -2.3708677  -5.0190193   0.4602548), wk =   0.0019531
        k(  265) = (   3.1611569  -0.9125490   0.2092072), wk =   0.0019531
        k(  266) = (   2.3708677  -1.3688235   0.2510485), wk =   0.0019531
        k(  267) = (   1.5805784  -1.8250979   0.2928899), wk =   0.0019531
        k(  268) = (   0.7902892  -2.2813724   0.3347312), wk =   0.0019531
        k(  269) = (   0.0000000  -2.7376469   0.3765725), wk =   0.0019531
        k(  270) = (  -0.7902892  -3.1939214   0.4184139), wk =   0.0019531
        k(  271) = (  -1.5805784  -3.6501959   0.4602552), wk =   0.0019531
        k(  272) = (  -2.3708677  -4.1064704   0.5020966), wk =   0.0019531
        k(  273) = (   3.1611569   0.0000000   0.2510490), wk =   0.0019531
        k(  274) = (   2.3708677  -0.4562745   0.2928903), wk =   0.0019531
        k(  275) = (   1.5805784  -0.9125490   0.3347317), wk =   0.0019531
        k(  276) = (   0.7902892  -1.3688235   0.3765730), wk =   0.0019531
        k(  277) = (   0.0000000  -1.8250979   0.4184143), wk =   0.0019531
        k(  278) = (  -0.7902892  -2.2813724   0.4602557), wk =   0.0019531
        k(  279) = (  -1.5805784  -2.7376469   0.5020970), wk =   0.0019531
        k(  280) = (  -2.3708677  -3.1939214   0.5439384), wk =   0.0019531
        k(  281) = (   3.1611569   0.9125490   0.2928908), wk =   0.0019531
        k(  282) = (   2.3708677   0.4562745   0.3347321), wk =   0.0019531
        k(  283) = (   1.5805784  -0.0000000   0.3765735), wk =   0.0019531
        k(  284) = (   0.7902892  -0.4562745   0.4184148), wk =   0.0019531
        k(  285) = (   0.0000000  -0.9125490   0.4602561), wk =   0.0019531
        k(  286) = (  -0.7902892  -1.3688235   0.5020975), wk =   0.0019531
        k(  287) = (  -1.5805784  -1.8250979   0.5439388), wk =   0.0019531
        k(  288) = (  -2.3708677  -2.2813724   0.5857802), wk =   0.0019531
        k(  289) = (   3.1611569   1.8250979   0.3347326), wk =   0.0019531
        k(  290) = (   2.3708677   1.3688235   0.3765739), wk =   0.0019531
        k(  291) = (   1.5805784   0.9125490   0.4184153), wk =   0.0019531
        k(  292) = (   0.7902892   0.4562745   0.4602566), wk =   0.0019531
        k(  293) = (   0.0000000   0.0000000   0.5020979), wk =   0.0019531
        k(  294) = (  -0.7902892  -0.4562745   0.5439393), wk =   0.0019531
        k(  295) = (  -1.5805784  -0.9125490   0.5857806), wk =   0.0019531
        k(  296) = (  -2.3708677  -1.3688235   0.6276220), wk =   0.0019531
        k(  297) = (   3.1611569   2.7376469   0.3765744), wk =   0.0019531
        k(  298) = (   2.3708677   2.2813724   0.4184157), wk =   0.0019531
        k(  299) = (   1.5805784   1.8250979   0.4602571), wk =   0.0019531
        k(  300) = (   0.7902892   1.3688235   0.5020984), wk =   0.0019531
        k(  301) = (   0.0000000   0.9125490   0.5439397), wk =   0.0019531
        k(  302) = (  -0.7902892   0.4562745   0.5857811), wk =   0.0019531
        k(  303) = (  -1.5805784   0.0000000   0.6276224), wk =   0.0019531
        k(  304) = (  -2.3708677  -0.4562745   0.6694638), wk =   0.0019531
        k(  305) = (   3.1611569   3.6501959   0.4184162), wk =   0.0019531
        k(  306) = (   2.3708677   3.1939214   0.4602575), wk =   0.0019531
        k(  307) = (   1.5805784   2.7376469   0.5020989), wk =   0.0019531
        k(  308) = (   0.7902892   2.2813724   0.5439402), wk =   0.0019531
        k(  309) = (   0.0000000   1.8250979   0.5857815), wk =   0.0019531
        k(  310) = (  -0.7902892   1.3688235   0.6276229), wk =   0.0019531
        k(  311) = (  -1.5805784   0.9125490   0.6694642), wk =   0.0019531
        k(  312) = (  -2.3708677   0.4562745   0.7113056), wk =   0.0019531
        k(  313) = (   3.1611569   4.5627449   0.4602580), wk =   0.0019531
        k(  314) = (   2.3708677   4.1064704   0.5020993), wk =   0.0019531
        k(  315) = (   1.5805784   3.6501959   0.5439407), wk =   0.0019531
        k(  316) = (   0.7902892   3.1939214   0.5857820), wk =   0.0019531
        k(  317) = (   0.0000000   2.7376469   0.6276234), wk =   0.0019531
        k(  318) = (  -0.7902892   2.2813724   0.6694647), wk =   0.0019531
        k(  319) = (  -1.5805784   1.8250979   0.7113060), wk =   0.0019531
        k(  320) = (  -2.3708677   1.3688235   0.7531474), wk =   0.0019531
        k(  321) = (   3.9514461  -2.2813724   0.2092067), wk =   0.0019531
        k(  322) = (   3.1611569  -2.7376469   0.2510481), wk =   0.0019531
        k(  323) = (   2.3708677  -3.1939214   0.2928894), wk =   0.0019531
        k(  324) = (   1.5805784  -3.6501959   0.3347307), wk =   0.0019531
        k(  325) = (   0.7902892  -4.1064704   0.3765721), wk =   0.0019531
        k(  326) = (   0.0000000  -4.5627449   0.4184134), wk =   0.0019531
        k(  327) = (  -0.7902892  -5.0190193   0.4602548), wk =   0.0019531
        k(  328) = (  -1.5805784  -5.4752938   0.5020961), wk =   0.0019531
        k(  329) = (   3.9514461  -1.3688235   0.2510485), wk =   0.0019531
        k(  330) = (   3.1611569  -1.8250979   0.2928899), wk =   0.0019531
        k(  331) = (   2.3708677  -2.2813724   0.3347312), wk =   0.0019531
        k(  332) = (   1.5805784  -2.7376469   0.3765725), wk =   0.0019531
        k(  333) = (   0.7902892  -3.1939214   0.4184139), wk =   0.0019531
        k(  334) = (   0.0000000  -3.6501959   0.4602552), wk =   0.0019531
        k(  335) = (  -0.7902892  -4.1064704   0.5020966), wk =   0.0019531
        k(  336) = (  -1.5805784  -4.5627449   0.5439379), wk =   0.0019531
        k(  337) = (   3.9514461  -0.4562745   0.2928903), wk =   0.0019531
        k(  338) = (   3.1611569  -0.9125490   0.3347317), wk =   0.0019531
        k(  339) = (   2.3708677  -1.3688235   0.3765730), wk =   0.0019531
        k(  340) = (   1.5805784  -1.8250979   0.4184143), wk =   0.0019531
        k(  341) = (   0.7902892  -2.2813724   0.4602557), wk =   0.0019531
        k(  342) = (   0.0000000  -2.7376469   0.5020970), wk =   0.0019531
        k(  343) = (  -0.7902892  -3.1939214   0.5439384), wk =   0.0019531
        k(  344) = (  -1.5805784  -3.6501959   0.5857797), wk =   0.0019531
        k(  345) = (   3.9514461   0.4562745   0.3347321), wk =   0.0019531
        k(  346) = (   3.1611569  -0.0000000   0.3765735), wk =   0.0019531
        k(  347) = (   2.3708677  -0.4562745   0.4184148), wk =   0.0019531
        k(  348) = (   1.5805784  -0.9125490   0.4602561), wk =   0.0019531
        k(  349) = (   0.7902892  -1.3688235   0.5020975), wk =   0.0019531
        k(  350) = (   0.0000000  -1.8250979   0.5439388), wk =   0.0019531
        k(  351) = (  -0.7902892  -2.2813724   0.5857802), wk =   0.0019531
        k(  352) = (  -1.5805784  -2.7376469   0.6276215), wk =   0.0019531
        k(  353) = (   3.9514461   1.3688235   0.3765739), wk =   0.0019531
        k(  354) = (   3.1611569   0.9125490   0.4184153), wk =   0.0019531
        k(  355) = (   2.3708677   0.4562745   0.4602566), wk =   0.0019531
        k(  356) = (   1.5805784   0.0000000   0.5020979), wk =   0.0019531
        k(  357) = (   0.7902892  -0.4562745   0.5439393), wk =   0.0019531
        k(  358) = (   0.0000000  -0.9125490   0.5857806), wk =   0.0019531
        k(  359) = (  -0.7902892  -1.3688235   0.6276220), wk =   0.0019531
        k(  360) = (  -1.5805784  -1.8250979   0.6694633), wk =   0.0019531
        k(  361) = (   3.9514461   2.2813724   0.4184157), wk =   0.0019531
        k(  362) = (   3.1611569   1.8250979   0.4602571), wk =   0.0019531
        k(  363) = (   2.3708677   1.3688235   0.5020984), wk =   0.0019531
        k(  364) = (   1.5805784   0.9125490   0.5439397), wk =   0.0019531
        k(  365) = (   0.7902892   0.4562745   0.5857811), wk =   0.0019531
        k(  366) = (   0.0000000   0.0000000   0.6276224), wk =   0.0019531
        k(  367) = (  -0.7902892  -0.4562745   0.6694638), wk =   0.0019531
        k(  368) = (  -1.5805784  -0.9125490   0.7113051), wk =   0.0019531
        k(  369) = (   3.9514461   3.1939214   0.4602575), wk =   0.0019531
        k(  370) = (   3.1611569   2.7376469   0.5020989), wk =   0.0019531
        k(  371) = (   2.3708677   2.2813724   0.5439402), wk =   0.0019531
        k(  372) = (   1.5805784   1.8250979   0.5857815), wk =   0.0019531
        k(  373) = (   0.7902892   1.3688235   0.6276229), wk =   0.0019531
        k(  374) = (   0.0000000   0.9125490   0.6694642), wk =   0.0019531
        k(  375) = (  -0.7902892   0.4562745   0.7113056), wk =   0.0019531
        k(  376) = (  -1.5805784  -0.0000000   0.7531469), wk =   0.0019531
        k(  377) = (   3.9514461   4.1064704   0.5020993), wk =   0.0019531
        k(  378) = (   3.1611569   3.6501959   0.5439407), wk =   0.0019531
        k(  379) = (   2.3708677   3.1939214   0.5857820), wk =   0.0019531
        k(  380) = (   1.5805784   2.7376469   0.6276234), wk =   0.0019531
        k(  381) = (   0.7902892   2.2813724   0.6694647), wk =   0.0019531
        k(  382) = (   0.0000000   1.8250979   0.7113060), wk =   0.0019531
        k(  383) = (  -0.7902892   1.3688235   0.7531474), wk =   0.0019531
        k(  384) = (  -1.5805784   0.9125490   0.7949887), wk =   0.0019531
        k(  385) = (   4.7417353  -2.7376469   0.2510481), wk =   0.0019531
        k(  386) = (   3.9514461  -3.1939214   0.2928894), wk =   0.0019531
        k(  387) = (   3.1611569  -3.6501959   0.3347307), wk =   0.0019531
        k(  388) = (   2.3708677  -4.1064704   0.3765721), wk =   0.0019531
        k(  389) = (   1.5805784  -4.5627449   0.4184134), wk =   0.0019531
        k(  390) = (   0.7902892  -5.0190193   0.4602548), wk =   0.0019531
        k(  391) = (   0.0000000  -5.4752938   0.5020961), wk =   0.0019531
        k(  392) = (  -0.7902892  -5.9315683   0.5439375), wk =   0.0019531
        k(  393) = (   4.7417353  -1.8250979   0.2928899), wk =   0.0019531
        k(  394) = (   3.9514461  -2.2813724   0.3347312), wk =   0.0019531
        k(  395) = (   3.1611569  -2.7376469   0.3765725), wk =   0.0019531
        k(  396) = (   2.3708677  -3.1939214   0.4184139), wk =   0.0019531
        k(  397) = (   1.5805784  -3.6501959   0.4602552), wk =   0.0019531
        k(  398) = (   0.7902892  -4.1064704   0.5020966), wk =   0.0019531
        k(  399) = (   0.0000000  -4.5627449   0.5439379), wk =   0.0019531
        k(  400) = (  -0.7902892  -5.0190193   0.5857793), wk =   0.0019531
        k(  401) = (   4.7417353  -0.9125490   0.3347317), wk =   0.0019531
        k(  402) = (   3.9514461  -1.3688235   0.3765730), wk =   0.0019531
        k(  403) = (   3.1611569  -1.8250979   0.4184143), wk =   0.0019531
        k(  404) = (   2.3708677  -2.2813724   0.4602557), wk =   0.0019531
        k(  405) = (   1.5805784  -2.7376469   0.5020970), wk =   0.0019531
        k(  406) = (   0.7902892  -3.1939214   0.5439384), wk =   0.0019531
        k(  407) = (   0.0000000  -3.6501959   0.5857797), wk =   0.0019531
        k(  408) = (  -0.7902892  -4.1064704   0.6276211), wk =   0.0019531
        k(  409) = (   4.7417353   0.0000000   0.3765735), wk =   0.0019531
        k(  410) = (   3.9514461  -0.4562745   0.4184148), wk =   0.0019531
        k(  411) = (   3.1611569  -0.9125490   0.4602561), wk =   0.0019531
        k(  412) = (   2.3708677  -1.3688235   0.5020975), wk =   0.0019531
        k(  413) = (   1.5805784  -1.8250979   0.5439388), wk =   0.0019531
        k(  414) = (   0.7902892  -2.2813724   0.5857802), wk =   0.0019531
        k(  415) = (   0.0000000  -2.7376469   0.6276215), wk =   0.0019531
        k(  416) = (  -0.7902892  -3.1939214   0.6694629), wk =   0.0019531
        k(  417) = (   4.7417353   0.9125490   0.4184153), wk =   0.0019531
        k(  418) = (   3.9514461   0.4562745   0.4602566), wk =   0.0019531
        k(  419) = (   3.1611569   0.0000000   0.5020979), wk =   0.0019531
        k(  420) = (   2.3708677  -0.4562745   0.5439393), wk =   0.0019531
        k(  421) = (   1.5805784  -0.9125490   0.5857806), wk =   0.0019531
        k(  422) = (   0.7902892  -1.3688235   0.6276220), wk =   0.0019531
        k(  423) = (   0.0000000  -1.8250979   0.6694633), wk =   0.0019531
        k(  424) = (  -0.7902892  -2.2813724   0.7113047), wk =   0.0019531
        k(  425) = (   4.7417353   1.8250979   0.4602571), wk =   0.0019531
        k(  426) = (   3.9514461   1.3688235   0.5020984), wk =   0.0019531
        k(  427) = (   3.1611569   0.9125490   0.5439397), wk =   0.0019531
        k(  428) = (   2.3708677   0.4562745   0.5857811), wk =   0.0019531
        k(  429) = (   1.5805784   0.0000000   0.6276224), wk =   0.0019531
        k(  430) = (   0.7902892  -0.4562745   0.6694638), wk =   0.0019531
        k(  431) = (   0.0000000  -0.9125490   0.7113051), wk =   0.0019531
        k(  432) = (  -0.7902892  -1.3688235   0.7531465), wk =   0.0019531
        k(  433) = (   4.7417353   2.7376469   0.5020989), wk =   0.0019531
        k(  434) = (   3.9514461   2.2813724   0.5439402), wk =   0.0019531
        k(  435) = (   3.1611569   1.8250979   0.5857815), wk =   0.0019531
        k(  436) = (   2.3708677   1.3688235   0.6276229), wk =   0.0019531
        k(  437) = (   1.5805784   0.9125490   0.6694642), wk =   0.0019531
        k(  438) = (   0.7902892   0.4562745   0.7113056), wk =   0.0019531
        k(  439) = (   0.0000000   0.0000000   0.7531469), wk =   0.0019531
        k(  440) = (  -0.7902892  -0.4562745   0.7949883), wk =   0.0019531
        k(  441) = (   4.7417353   3.6501959   0.5439407), wk =   0.0019531
        k(  442) = (   3.9514461   3.1939214   0.5857820), wk =   0.0019531
        k(  443) = (   3.1611569   2.7376469   0.6276234), wk =   0.0019531
        k(  444) = (   2.3708677   2.2813724   0.6694647), wk =   0.0019531
        k(  445) = (   1.5805784   1.8250979   0.7113060), wk =   0.0019531
        k(  446) = (   0.7902892   1.3688235   0.7531474), wk =   0.0019531
        k(  447) = (   0.0000000   0.9125490   0.7949887), wk =   0.0019531
        k(  448) = (  -0.7902892   0.4562745   0.8368301), wk =   0.0019531
        k(  449) = (   5.5320245  -3.1939214   0.2928894), wk =   0.0019531
        k(  450) = (   4.7417353  -3.6501959   0.3347307), wk =   0.0019531
        k(  451) = (   3.9514461  -4.1064704   0.3765721), wk =   0.0019531
        k(  452) = (   3.1611569  -4.5627449   0.4184134), wk =   0.0019531
        k(  453) = (   2.3708677  -5.0190193   0.4602548), wk =   0.0019531
        k(  454) = (   1.5805784  -5.4752938   0.5020961), wk =   0.0019531
        k(  455) = (   0.7902892  -5.9315683   0.5439375), wk =   0.0019531
        k(  456) = (   0.0000000  -6.3878428   0.5857788), wk =   0.0019531
        k(  457) = (   5.5320245  -2.2813724   0.3347312), wk =   0.0019531
        k(  458) = (   4.7417353  -2.7376469   0.3765725), wk =   0.0019531
        k(  459) = (   3.9514461  -3.1939214   0.4184139), wk =   0.0019531
        k(  460) = (   3.1611569  -3.6501959   0.4602552), wk =   0.0019531
        k(  461) = (   2.3708677  -4.1064704   0.5020966), wk =   0.0019531
        k(  462) = (   1.5805784  -4.5627449   0.5439379), wk =   0.0019531
        k(  463) = (   0.7902892  -5.0190193   0.5857793), wk =   0.0019531
        k(  464) = (   0.0000000  -5.4752938   0.6276206), wk =   0.0019531
        k(  465) = (   5.5320245  -1.3688235   0.3765730), wk =   0.0019531
        k(  466) = (   4.7417353  -1.8250979   0.4184143), wk =   0.0019531
        k(  467) = (   3.9514461  -2.2813724   0.4602557), wk =   0.0019531
        k(  468) = (   3.1611569  -2.7376469   0.5020970), wk =   0.0019531
        k(  469) = (   2.3708677  -3.1939214   0.5439384), wk =   0.0019531
        k(  470) = (   1.5805784  -3.6501959   0.5857797), wk =   0.0019531
        k(  471) = (   0.7902892  -4.1064704   0.6276211), wk =   0.0019531
        k(  472) = (   0.0000000  -4.5627449   0.6694624), wk =   0.0019531
        k(  473) = (   5.5320245  -0.4562745   0.4184148), wk =   0.0019531
        k(  474) = (   4.7417353  -0.9125490   0.4602561), wk =   0.0019531
        k(  475) = (   3.9514461  -1.3688235   0.5020975), wk =   0.0019531
        k(  476) = (   3.1611569  -1.8250979   0.5439388), wk =   0.0019531
        k(  477) = (   2.3708677  -2.2813724   0.5857802), wk =   0.0019531
        k(  478) = (   1.5805784  -2.7376469   0.6276215), wk =   0.0019531
        k(  479) = (   0.7902892  -3.1939214   0.6694629), wk =   0.0019531
        k(  480) = (   0.0000000  -3.6501959   0.7113042), wk =   0.0019531
        k(  481) = (   5.5320245   0.4562745   0.4602566), wk =   0.0019531
        k(  482) = (   4.7417353  -0.0000000   0.5020979), wk =   0.0019531
        k(  483) = (   3.9514461  -0.4562745   0.5439393), wk =   0.0019531
        k(  484) = (   3.1611569  -0.9125490   0.5857806), wk =   0.0019531
        k(  485) = (   2.3708677  -1.3688235   0.6276220), wk =   0.0019531
        k(  486) = (   1.5805784  -1.8250979   0.6694633), wk =   0.0019531
        k(  487) = (   0.7902892  -2.2813724   0.7113047), wk =   0.0019531
        k(  488) = (   0.0000000  -2.7376469   0.7531460), wk =   0.0019531
        k(  489) = (   5.5320245   1.3688235   0.5020984), wk =   0.0019531
        k(  490) = (   4.7417353   0.9125490   0.5439397), wk =   0.0019531
        k(  491) = (   3.9514461   0.4562745   0.5857811), wk =   0.0019531
        k(  492) = (   3.1611569   0.0000000   0.6276224), wk =   0.0019531
        k(  493) = (   2.3708677  -0.4562745   0.6694638), wk =   0.0019531
        k(  494) = (   1.5805784  -0.9125490   0.7113051), wk =   0.0019531
        k(  495) = (   0.7902892  -1.3688235   0.7531465), wk =   0.0019531
        k(  496) = (   0.0000000  -1.8250979   0.7949878), wk =   0.0019531
        k(  497) = (   5.5320245   2.2813724   0.5439402), wk =   0.0019531
        k(  498) = (   4.7417353   1.8250979   0.5857815), wk =   0.0019531
        k(  499) = (   3.9514461   1.3688235   0.6276229), wk =   0.0019531
        k(  500) = (   3.1611569   0.9125490   0.6694642), wk =   0.0019531
        k(  501) = (   2.3708677   0.4562745   0.7113056), wk =   0.0019531
        k(  502) = (   1.5805784  -0.0000000   0.7531469), wk =   0.0019531
        k(  503) = (   0.7902892  -0.4562745   0.7949883), wk =   0.0019531
        k(  504) = (   0.0000000  -0.9125490   0.8368296), wk =   0.0019531
        k(  505) = (   5.5320245   3.1939214   0.5857820), wk =   0.0019531
        k(  506) = (   4.7417353   2.7376469   0.6276234), wk =   0.0019531
        k(  507) = (   3.9514461   2.2813724   0.6694647), wk =   0.0019531
        k(  508) = (   3.1611569   1.8250979   0.7113060), wk =   0.0019531
        k(  509) = (   2.3708677   1.3688235   0.7531474), wk =   0.0019531
        k(  510) = (   1.5805784   0.9125490   0.7949887), wk =   0.0019531
        k(  511) = (   0.7902892   0.4562745   0.8368301), wk =   0.0019531
        k(  512) = (   0.0000000   0.0000000   0.8786714), wk =   0.0019531

                       cryst. coord.
        k(    1) = (   0.0000000   0.0000000   0.0000000), wk =   0.0019531
        k(    2) = (   0.0000000   0.0000000   0.1250000), wk =   0.0019531
        k(    3) = (   0.0000000   0.0000000   0.2500000), wk =   0.0019531
        k(    4) = (  -0.0000000   0.0000000   0.3750000), wk =   0.0019531
        k(    5) = (   0.0000000   0.0000000   0.5000000), wk =   0.0019531
        k(    6) = (   0.0000000   0.0000000   0.6250000), wk =   0.0019531
        k(    7) = (  -0.0000000   0.0000000   0.7500000), wk =   0.0019531
        k(    8) = (   0.0000000   0.0000000   0.8750000), wk =   0.0019531
        k(    9) = (   0.0000000   0.1250000   0.0000000), wk =   0.0019531
        k(   10) = (   0.0000000   0.1250000   0.1250000), wk =   0.0019531
        k(   11) = (   0.0000000   0.1250000   0.2500000), wk =   0.0019531
        k(   12) = (  -0.0000000   0.1250000   0.3750000), wk =   0.0019531
        k(   13) = (   0.0000000   0.1250000   0.5000000), wk =   0.0019531
        k(   14) = (  -0.0000000   0.1250000   0.6250000), wk =   0.0019531
        k(   15) = (  -0.0000000   0.1250000   0.7500000), wk =   0.0019531
        k(   16) = (   0.0000000   0.1250000   0.8750000), wk =   0.0019531
        k(   17) = (   0.0000000   0.2500000   0.0000000), wk =   0.0019531
        k(   18) = (   0.0000000   0.2500000   0.1250000), wk =   0.0019531
        k(   19) = (   0.0000000   0.2500000   0.2500000), wk =   0.0019531
        k(   20) = (  -0.0000000   0.2500000   0.3750000), wk =   0.0019531
        k(   21) = (   0.0000000   0.2500000   0.5000000), wk =   0.0019531
        k(   22) = (   0.0000000   0.2500000   0.6250000), wk =   0.0019531
        k(   23) = (  -0.0000000   0.2500000   0.7500000), wk =   0.0019531
        k(   24) = (   0.0000000   0.2500000   0.8750000), wk =   0.0019531
        k(   25) = (   0.0000000   0.3750000   0.0000000), wk =   0.0019531
        k(   26) = (  -0.0000000   0.3750000   0.1250000), wk =   0.0019531
        k(   27) = (   0.0000000   0.3750000   0.2500000), wk =   0.0019531
        k(   28) = (   0.0000000   0.3750000   0.3750000), wk =   0.0019531
        k(   29) = (  -0.0000000   0.3750000   0.5000000), wk =   0.0019531
        k(   30) = (  -0.0000000   0.3750000   0.6250000), wk =   0.0019531
        k(   31) = (  -0.0000000   0.3750000   0.7500000), wk =   0.0019531
        k(   32) = (   0.0000000   0.3750000   0.8750000), wk =   0.0019531
        k(   33) = (   0.0000000   0.5000000   0.0000000), wk =   0.0019531
        k(   34) = (   0.0000000   0.5000000   0.1250000), wk =   0.0019531
        k(   35) = (   0.0000000   0.5000000   0.2500000), wk =   0.0019531
        k(   36) = (  -0.0000000   0.5000000   0.3750000), wk =   0.0019531
        k(   37) = (   0.0000000   0.5000000   0.5000000), wk =   0.0019531
        k(   38) = (   0.0000000   0.5000000   0.6250000), wk =   0.0019531
        k(   39) = (  -0.0000000   0.5000000   0.7500000), wk =   0.0019531
        k(   40) = (   0.0000000   0.5000000   0.8750000), wk =   0.0019531
        k(   41) = (   0.0000000   0.6250000   0.0000000), wk =   0.0019531
        k(   42) = (   0.0000000   0.6250000   0.1250000), wk =   0.0019531
        k(   43) = (   0.0000000   0.6250000   0.2500000), wk =   0.0019531
        k(   44) = (   0.0000000   0.6250000   0.3750000), wk =   0.0019531
        k(   45) = (   0.0000000   0.6250000   0.5000000), wk =   0.0019531
        k(   46) = (   0.0000000   0.6250000   0.6250000), wk =   0.0019531
        k(   47) = (  -0.0000000   0.6250000   0.7500000), wk =   0.0019531
        k(   48) = (   0.0000000   0.6250000   0.8750000), wk =   0.0019531
        k(   49) = (   0.0000000   0.7500000   0.0000000), wk =   0.0019531
        k(   50) = (   0.0000000   0.7500000   0.1250000), wk =   0.0019531
        k(   51) = (  -0.0000000   0.7500000   0.2500000), wk =   0.0019531
        k(   52) = (   0.0000000   0.7500000   0.3750000), wk =   0.0019531
        k(   53) = (   0.0000000   0.7500000   0.5000000), wk =   0.0019531
        k(   54) = (  -0.0000000   0.7500000   0.6250000), wk =   0.0019531
        k(   55) = (   0.0000000   0.7500000   0.7500000), wk =   0.0019531
        k(   56) = (   0.0000000   0.7500000   0.8750000), wk =   0.0019531
        k(   57) = (   0.0000000   0.8750000   0.0000000), wk =   0.0019531
        k(   58) = (   0.0000000   0.8750000   0.1250000), wk =   0.0019531
        k(   59) = (  -0.0000000   0.8750000   0.2500000), wk =   0.0019531
        k(   60) = (  -0.0000000   0.8750000   0.3750000), wk =   0.0019531
        k(   61) = (  -0.0000000   0.8750000   0.5000000), wk =   0.0019531
        k(   62) = (   0.0000000   0.8750000   0.6250000), wk =   0.0019531
        k(   63) = (  -0.0000000   0.8750000   0.7500000), wk =   0.0019531
        k(   64) = (   0.0000000   0.8750000   0.8750000), wk =   0.0019531
        k(   65) = (   0.1250000   0.0000000   0.0000000), wk =   0.0019531
        k(   66) = (   0.1250000   0.0000000   0.1250000), wk =   0.0019531
        k(   67) = (   0.1250000   0.0000000   0.2500000), wk =   0.0019531
        k(   68) = (   0.1250000   0.0000000   0.3750000), wk =   0.0019531
        k(   69) = (   0.1250000   0.0000000   0.5000000), wk =   0.0019531
        k(   70) = (   0.1250000   0.0000000   0.6250000), wk =   0.0019531
        k(   71) = (   0.1250000   0.0000000   0.7500000), wk =   0.0019531
        k(   72) = (   0.1250000   0.0000000   0.8750000), wk =   0.0019531
        k(   73) = (   0.1250000   0.1250000   0.0000000), wk =   0.0019531
        k(   74) = (   0.1250000   0.1250000   0.1250000), wk =   0.0019531
        k(   75) = (   0.1250000   0.1250000   0.2500000), wk =   0.0019531
        k(   76) = (   0.1250000   0.1250000   0.3750000), wk =   0.0019531
        k(   77) = (   0.1250000   0.1250000   0.5000000), wk =   0.0019531
        k(   78) = (   0.1250000   0.1250000   0.6250000), wk =   0.0019531
        k(   79) = (   0.1250000   0.1250000   0.7500000), wk =   0.0019531
        k(   80) = (   0.1250000   0.1250000   0.8750000), wk =   0.0019531
        k(   81) = (   0.1250000   0.2500000   0.0000000), wk =   0.0019531
        k(   82) = (   0.1250000   0.2500000   0.1250000), wk =   0.0019531
        k(   83) = (   0.1250000   0.2500000   0.2500000), wk =   0.0019531
        k(   84) = (   0.1250000   0.2500000   0.3750000), wk =   0.0019531
        k(   85) = (   0.1250000   0.2500000   0.5000000), wk =   0.0019531
        k(   86) = (   0.1250000   0.2500000   0.6250000), wk =   0.0019531
        k(   87) = (   0.1250000   0.2500000   0.7500000), wk =   0.0019531
        k(   88) = (   0.1250000   0.2500000   0.8750000), wk =   0.0019531
        k(   89) = (   0.1250000   0.3750000  -0.0000000), wk =   0.0019531
        k(   90) = (   0.1250000   0.3750000   0.1250000), wk =   0.0019531
        k(   91) = (   0.1250000   0.3750000   0.2500000), wk =   0.0019531
        k(   92) = (   0.1250000   0.3750000   0.3750000), wk =   0.0019531
        k(   93) = (   0.1250000   0.3750000   0.5000000), wk =   0.0019531
        k(   94) = (   0.1250000   0.3750000   0.6250000), wk =   0.0019531
        k(   95) = (   0.1250000   0.3750000   0.7500000), wk =   0.0019531
        k(   96) = (   0.1250000   0.3750000   0.8750000), wk =   0.0019531
        k(   97) = (   0.1250000   0.5000000   0.0000000), wk =   0.0019531
        k(   98) = (   0.1250000   0.5000000   0.1250000), wk =   0.0019531
        k(   99) = (   0.1250000   0.5000000   0.2500000), wk =   0.0019531
        k(  100) = (   0.1250000   0.5000000   0.3750000), wk =   0.0019531
        k(  101) = (   0.1250000   0.5000000   0.5000000), wk =   0.0019531
        k(  102) = (   0.1250000   0.5000000   0.6250000), wk =   0.0019531
        k(  103) = (   0.1250000   0.5000000   0.7500000), wk =   0.0019531
        k(  104) = (   0.1250000   0.5000000   0.8750000), wk =   0.0019531
        k(  105) = (   0.1250000   0.6250000   0.0000000), wk =   0.0019531
        k(  106) = (   0.1250000   0.6250000   0.1250000), wk =   0.0019531
        k(  107) = (   0.1250000   0.6250000   0.2500000), wk =   0.0019531
        k(  108) = (   0.1250000   0.6250000   0.3750000), wk =   0.0019531
        k(  109) = (   0.1250000   0.6250000   0.5000000), wk =   0.0019531
        k(  110) = (   0.1250000   0.6250000   0.6250000), wk =   0.0019531
        k(  111) = (   0.1250000   0.6250000   0.7500000), wk =   0.0019531
        k(  112) = (   0.1250000   0.6250000   0.8750000), wk =   0.0019531
        k(  113) = (   0.1250000   0.7500000   0.0000000), wk =   0.0019531
        k(  114) = (   0.1250000   0.7500000   0.1250000), wk =   0.0019531
        k(  115) = (   0.1250000   0.7500000   0.2500000), wk =   0.0019531
        k(  116) = (   0.1250000   0.7500000   0.3750000), wk =   0.0019531
        k(  117) = (   0.1250000   0.7500000   0.5000000), wk =   0.0019531
        k(  118) = (   0.1250000   0.7500000   0.6250000), wk =   0.0019531
        k(  119) = (   0.1250000   0.7500000   0.7500000), wk =   0.0019531
        k(  120) = (   0.1250000   0.7500000   0.8750000), wk =   0.0019531
        k(  121) = (   0.1250000   0.8750000   0.0000000), wk =   0.0019531
        k(  122) = (   0.1250000   0.8750000   0.1250000), wk =   0.0019531
        k(  123) = (   0.1250000   0.8750000   0.2500000), wk =   0.0019531
        k(  124) = (   0.1250000   0.8750000   0.3750000), wk =   0.0019531
        k(  125) = (   0.1250000   0.8750000   0.5000000), wk =   0.0019531
        k(  126) = (   0.1250000   0.8750000   0.6250000), wk =   0.0019531
        k(  127) = (   0.1250000   0.8750000   0.7500000), wk =   0.0019531
        k(  128) = (   0.1250000   0.8750000   0.8750000), wk =   0.0019531
        k(  129) = (   0.2500000   0.0000000   0.0000000), wk =   0.0019531
        k(  130) = (   0.2500000   0.0000000   0.1250000), wk =   0.0019531
        k(  131) = (   0.2500000   0.0000000   0.2500000), wk =   0.0019531
        k(  132) = (   0.2500000   0.0000000   0.3750000), wk =   0.0019531
        k(  133) = (   0.2500000   0.0000000   0.5000000), wk =   0.0019531
        k(  134) = (   0.2500000   0.0000000   0.6250000), wk =   0.0019531
        k(  135) = (   0.2500000   0.0000000   0.7500000), wk =   0.0019531
        k(  136) = (   0.2500000   0.0000000   0.8750000), wk =   0.0019531
        k(  137) = (   0.2500000   0.1250000   0.0000000), wk =   0.0019531
        k(  138) = (   0.2500000   0.1250000   0.1250000), wk =   0.0019531
        k(  139) = (   0.2500000   0.1250000   0.2500000), wk =   0.0019531
        k(  140) = (   0.2500000   0.1250000   0.3750000), wk =   0.0019531
        k(  141) = (   0.2500000   0.1250000   0.5000000), wk =   0.0019531
        k(  142) = (   0.2500000   0.1250000   0.6250000), wk =   0.0019531
        k(  143) = (   0.2500000   0.1250000   0.7500000), wk =   0.0019531
        k(  144) = (   0.2500000   0.1250000   0.8750000), wk =   0.0019531
        k(  145) = (   0.2500000   0.2500000   0.0000000), wk =   0.0019531
        k(  146) = (   0.2500000   0.2500000   0.1250000), wk =   0.0019531
        k(  147) = (   0.2500000   0.2500000   0.2500000), wk =   0.0019531
        k(  148) = (   0.2500000   0.2500000   0.3750000), wk =   0.0019531
        k(  149) = (   0.2500000   0.2500000   0.5000000), wk =   0.0019531
        k(  150) = (   0.2500000   0.2500000   0.6250000), wk =   0.0019531
        k(  151) = (   0.2500000   0.2500000   0.7500000), wk =   0.0019531
        k(  152) = (   0.2500000   0.2500000   0.8750000), wk =   0.0019531
        k(  153) = (   0.2500000   0.3750000   0.0000000), wk =   0.0019531
        k(  154) = (   0.2500000   0.3750000   0.1250000), wk =   0.0019531
        k(  155) = (   0.2500000   0.3750000   0.2500000), wk =   0.0019531
        k(  156) = (   0.2500000   0.3750000   0.3750000), wk =   0.0019531
        k(  157) = (   0.2500000   0.3750000   0.5000000), wk =   0.0019531
        k(  158) = (   0.2500000   0.3750000   0.6250000), wk =   0.0019531
        k(  159) = (   0.2500000   0.3750000   0.7500000), wk =   0.0019531
        k(  160) = (   0.2500000   0.3750000   0.8750000), wk =   0.0019531
        k(  161) = (   0.2500000   0.5000000   0.0000000), wk =   0.0019531
        k(  162) = (   0.2500000   0.5000000   0.1250000), wk =   0.0019531
        k(  163) = (   0.2500000   0.5000000   0.2500000), wk =   0.0019531
        k(  164) = (   0.2500000   0.5000000   0.3750000), wk =   0.0019531
        k(  165) = (   0.2500000   0.5000000   0.5000000), wk =   0.0019531
        k(  166) = (   0.2500000   0.5000000   0.6250000), wk =   0.0019531
        k(  167) = (   0.2500000   0.5000000   0.7500000), wk =   0.0019531
        k(  168) = (   0.2500000   0.5000000   0.8750000), wk =   0.0019531
        k(  169) = (   0.2500000   0.6250000   0.0000000), wk =   0.0019531
        k(  170) = (   0.2500000   0.6250000   0.1250000), wk =   0.0019531
        k(  171) = (   0.2500000   0.6250000   0.2500000), wk =   0.0019531
        k(  172) = (   0.2500000   0.6250000   0.3750000), wk =   0.0019531
        k(  173) = (   0.2500000   0.6250000   0.5000000), wk =   0.0019531
        k(  174) = (   0.2500000   0.6250000   0.6250000), wk =   0.0019531
        k(  175) = (   0.2500000   0.6250000   0.7500000), wk =   0.0019531
        k(  176) = (   0.2500000   0.6250000   0.8750000), wk =   0.0019531
        k(  177) = (   0.2500000   0.7500000  -0.0000000), wk =   0.0019531
        k(  178) = (   0.2500000   0.7500000   0.1250000), wk =   0.0019531
        k(  179) = (   0.2500000   0.7500000   0.2500000), wk =   0.0019531
        k(  180) = (   0.2500000   0.7500000   0.3750000), wk =   0.0019531
        k(  181) = (   0.2500000   0.7500000   0.5000000), wk =   0.0019531
        k(  182) = (   0.2500000   0.7500000   0.6250000), wk =   0.0019531
        k(  183) = (   0.2500000   0.7500000   0.7500000), wk =   0.0019531
        k(  184) = (   0.2500000   0.7500000   0.8750000), wk =   0.0019531
        k(  185) = (   0.2500000   0.8750000  -0.0000000), wk =   0.0019531
        k(  186) = (   0.2500000   0.8750000   0.1250000), wk =   0.0019531
        k(  187) = (   0.2500000   0.8750000   0.2500000), wk =   0.0019531
        k(  188) = (   0.2500000   0.8750000   0.3750000), wk =   0.0019531
        k(  189) = (   0.2500000   0.8750000   0.5000000), wk =   0.0019531
        k(  190) = (   0.2500000   0.8750000   0.6250000), wk =   0.0019531
        k(  191) = (   0.2500000   0.8750000   0.7500000), wk =   0.0019531
        k(  192) = (   0.2500000   0.8750000   0.8750000), wk =   0.0019531
        k(  193) = (   0.3750000   0.0000000  -0.0000000), wk =   0.0019531
        k(  194) = (   0.3750000   0.0000000   0.1250000), wk =   0.0019531
        k(  195) = (   0.3750000   0.0000000   0.2500000), wk =   0.0019531
        k(  196) = (   0.3750000   0.0000000   0.3750000), wk =   0.0019531
        k(  197) = (   0.3750000   0.0000000   0.5000000), wk =   0.0019531
        k(  198) = (   0.3750000   0.0000000   0.6250000), wk =   0.0019531
        k(  199) = (   0.3750000   0.0000000   0.7500000), wk =   0.0019531
        k(  200) = (   0.3750000   0.0000000   0.8750000), wk =   0.0019531
        k(  201) = (   0.3750000   0.1250000  -0.0000000), wk =   0.0019531
        k(  202) = (   0.3750000   0.1250000   0.1250000), wk =   0.0019531
        k(  203) = (   0.3750000   0.1250000   0.2500000), wk =   0.0019531
        k(  204) = (   0.3750000   0.1250000   0.3750000), wk =   0.0019531
        k(  205) = (   0.3750000   0.1250000   0.5000000), wk =   0.0019531
        k(  206) = (   0.3750000   0.1250000   0.6250000), wk =   0.0019531
        k(  207) = (   0.3750000   0.1250000   0.7500000), wk =   0.0019531
        k(  208) = (   0.3750000   0.1250000   0.8750000), wk =   0.0019531
        k(  209) = (   0.3750000   0.2500000  -0.0000000), wk =   0.0019531
        k(  210) = (   0.3750000   0.2500000   0.1250000), wk =   0.0019531
        k(  211) = (   0.3750000   0.2500000   0.2500000), wk =   0.0019531
        k(  212) = (   0.3750000   0.2500000   0.3750000), wk =   0.0019531
        k(  213) = (   0.3750000   0.2500000   0.5000000), wk =   0.0019531
        k(  214) = (   0.3750000   0.2500000   0.6250000), wk =   0.0019531
        k(  215) = (   0.3750000   0.2500000   0.7500000), wk =   0.0019531
        k(  216) = (   0.3750000   0.2500000   0.8750000), wk =   0.0019531
        k(  217) = (   0.3750000   0.3750000   0.0000000), wk =   0.0019531
        k(  218) = (   0.3750000   0.3750000   0.1250000), wk =   0.0019531
        k(  219) = (   0.3750000   0.3750000   0.2500000), wk =   0.0019531
        k(  220) = (   0.3750000   0.3750000   0.3750000), wk =   0.0019531
        k(  221) = (   0.3750000   0.3750000   0.5000000), wk =   0.0019531
        k(  222) = (   0.3750000   0.3750000   0.6250000), wk =   0.0019531
        k(  223) = (   0.3750000   0.3750000   0.7500000), wk =   0.0019531
        k(  224) = (   0.3750000   0.3750000   0.8750000), wk =   0.0019531
        k(  225) = (   0.3750000   0.5000000  -0.0000000), wk =   0.0019531
        k(  226) = (   0.3750000   0.5000000   0.1250000), wk =   0.0019531
        k(  227) = (   0.3750000   0.5000000   0.2500000), wk =   0.0019531
        k(  228) = (   0.3750000   0.5000000   0.3750000), wk =   0.0019531
        k(  229) = (   0.3750000   0.5000000   0.5000000), wk =   0.0019531
        k(  230) = (   0.3750000   0.5000000   0.6250000), wk =   0.0019531
        k(  231) = (   0.3750000   0.5000000   0.7500000), wk =   0.0019531
        k(  232) = (   0.3750000   0.5000000   0.8750000), wk =   0.0019531
        k(  233) = (   0.3750000   0.6250000   0.0000000), wk =   0.0019531
        k(  234) = (   0.3750000   0.6250000   0.1250000), wk =   0.0019531
        k(  235) = (   0.3750000   0.6250000   0.2500000), wk =   0.0019531
        k(  236) = (   0.3750000   0.6250000   0.3750000), wk =   0.0019531
        k(  237) = (   0.3750000   0.6250000   0.5000000), wk =   0.0019531
        k(  238) = (   0.3750000   0.6250000   0.6250000), wk =   0.0019531
        k(  239) = (   0.3750000   0.6250000   0.7500000), wk =   0.0019531
        k(  240) = (   0.3750000   0.6250000   0.8750000), wk =   0.0019531
        k(  241) = (   0.3750000   0.7500000   0.0000000), wk =   0.0019531
        k(  242) = (   0.3750000   0.7500000   0.1250000), wk =   0.0019531
        k(  243) = (   0.3750000   0.7500000   0.2500000), wk =   0.0019531
        k(  244) = (   0.3750000   0.7500000   0.3750000), wk =   0.0019531
        k(  245) = (   0.3750000   0.7500000   0.5000000), wk =   0.0019531
        k(  246) = (   0.3750000   0.7500000   0.6250000), wk =   0.0019531
        k(  247) = (   0.3750000   0.7500000   0.7500000), wk =   0.0019531
        k(  248) = (   0.3750000   0.7500000   0.8750000), wk =   0.0019531
        k(  249) = (   0.3750000   0.8750000  -0.0000000), wk =   0.0019531
        k(  250) = (   0.3750000   0.8750000   0.1250000), wk =   0.0019531
        k(  251) = (   0.3750000   0.8750000   0.2500000), wk =   0.0019531
        k(  252) = (   0.3750000   0.8750000   0.3750000), wk =   0.0019531
        k(  253) = (   0.3750000   0.8750000   0.5000000), wk =   0.0019531
        k(  254) = (   0.3750000   0.8750000   0.6250000), wk =   0.0019531
        k(  255) = (   0.3750000   0.8750000   0.7500000), wk =   0.0019531
        k(  256) = (   0.3750000   0.8750000   0.8750000), wk =   0.0019531
        k(  257) = (   0.5000000   0.0000000   0.0000000), wk =   0.0019531
        k(  258) = (   0.5000000   0.0000000   0.1250000), wk =   0.0019531
        k(  259) = (   0.5000000   0.0000000   0.2500000), wk =   0.0019531
        k(  260) = (   0.5000000   0.0000000   0.3750000), wk =   0.0019531
        k(  261) = (   0.5000000   0.0000000   0.5000000), wk =   0.0019531
        k(  262) = (   0.5000000   0.0000000   0.6250000), wk =   0.0019531
        k(  263) = (   0.5000000   0.0000000   0.7500000), wk =   0.0019531
        k(  264) = (   0.5000000   0.0000000   0.8750000), wk =   0.0019531
        k(  265) = (   0.5000000   0.1250000   0.0000000), wk =   0.0019531
        k(  266) = (   0.5000000   0.1250000   0.1250000), wk =   0.0019531
        k(  267) = (   0.5000000   0.1250000   0.2500000), wk =   0.0019531
        k(  268) = (   0.5000000   0.1250000   0.3750000), wk =   0.0019531
        k(  269) = (   0.5000000   0.1250000   0.5000000), wk =   0.0019531
        k(  270) = (   0.5000000   0.1250000   0.6250000), wk =   0.0019531
        k(  271) = (   0.5000000   0.1250000   0.7500000), wk =   0.0019531
        k(  272) = (   0.5000000   0.1250000   0.8750000), wk =   0.0019531
        k(  273) = (   0.5000000   0.2500000   0.0000000), wk =   0.0019531
        k(  274) = (   0.5000000   0.2500000   0.1250000), wk =   0.0019531
        k(  275) = (   0.5000000   0.2500000   0.2500000), wk =   0.0019531
        k(  276) = (   0.5000000   0.2500000   0.3750000), wk =   0.0019531
        k(  277) = (   0.5000000   0.2500000   0.5000000), wk =   0.0019531
        k(  278) = (   0.5000000   0.2500000   0.6250000), wk =   0.0019531
        k(  279) = (   0.5000000   0.2500000   0.7500000), wk =   0.0019531
        k(  280) = (   0.5000000   0.2500000   0.8750000), wk =   0.0019531
        k(  281) = (   0.5000000   0.3750000  -0.0000000), wk =   0.0019531
        k(  282) = (   0.5000000   0.3750000   0.1250000), wk =   0.0019531
        k(  283) = (   0.5000000   0.3750000   0.2500000), wk =   0.0019531
        k(  284) = (   0.5000000   0.3750000   0.3750000), wk =   0.0019531
        k(  285) = (   0.5000000   0.3750000   0.5000000), wk =   0.0019531
        k(  286) = (   0.5000000   0.3750000   0.6250000), wk =   0.0019531
        k(  287) = (   0.5000000   0.3750000   0.7500000), wk =   0.0019531
        k(  288) = (   0.5000000   0.3750000   0.8750000), wk =   0.0019531
        k(  289) = (   0.5000000   0.5000000   0.0000000), wk =   0.0019531
        k(  290) = (   0.5000000   0.5000000   0.1250000), wk =   0.0019531
        k(  291) = (   0.5000000   0.5000000   0.2500000), wk =   0.0019531
        k(  292) = (   0.5000000   0.5000000   0.3750000), wk =   0.0019531
        k(  293) = (   0.5000000   0.5000000   0.5000000), wk =   0.0019531
        k(  294) = (   0.5000000   0.5000000   0.6250000), wk =   0.0019531
        k(  295) = (   0.5000000   0.5000000   0.7500000), wk =   0.0019531
        k(  296) = (   0.5000000   0.5000000   0.8750000), wk =   0.0019531
        k(  297) = (   0.5000000   0.6250000   0.0000000), wk =   0.0019531
        k(  298) = (   0.5000000   0.6250000   0.1250000), wk =   0.0019531
        k(  299) = (   0.5000000   0.6250000   0.2500000), wk =   0.0019531
        k(  300) = (   0.5000000   0.6250000   0.3750000), wk =   0.0019531
        k(  301) = (   0.5000000   0.6250000   0.5000000), wk =   0.0019531
        k(  302) = (   0.5000000   0.6250000   0.6250000), wk =   0.0019531
        k(  303) = (   0.5000000   0.6250000   0.7500000), wk =   0.0019531
        k(  304) = (   0.5000000   0.6250000   0.8750000), wk =   0.0019531
        k(  305) = (   0.5000000   0.7500000   0.0000000), wk =   0.0019531
        k(  306) = (   0.5000000   0.7500000   0.1250000), wk =   0.0019531
        k(  307) = (   0.5000000   0.7500000   0.2500000), wk =   0.0019531
        k(  308) = (   0.5000000   0.7500000   0.3750000), wk =   0.0019531
        k(  309) = (   0.5000000   0.7500000   0.5000000), wk =   0.0019531
        k(  310) = (   0.5000000   0.7500000   0.6250000), wk =   0.0019531
        k(  311) = (   0.5000000   0.7500000   0.7500000), wk =   0.0019531
        k(  312) = (   0.5000000   0.7500000   0.8750000), wk =   0.0019531
        k(  313) = (   0.5000000   0.8750000  -0.0000000), wk =   0.0019531
        k(  314) = (   0.5000000   0.8750000   0.1250000), wk =   0.0019531
        k(  315) = (   0.5000000   0.8750000   0.2500000), wk =   0.0019531
        k(  316) = (   0.5000000   0.8750000   0.3750000), wk =   0.0019531
        k(  317) = (   0.5000000   0.8750000   0.5000000), wk =   0.0019531
        k(  318) = (   0.5000000   0.8750000   0.6250000), wk =   0.0019531
        k(  319) = (   0.5000000   0.8750000   0.7500000), wk =   0.0019531
        k(  320) = (   0.5000000   0.8750000   0.8750000), wk =   0.0019531
        k(  321) = (   0.6250000   0.0000000   0.0000000), wk =   0.0019531
        k(  322) = (   0.6250000   0.0000000   0.1250000), wk =   0.0019531
        k(  323) = (   0.6250000   0.0000000   0.2500000), wk =   0.0019531
        k(  324) = (   0.6250000   0.0000000   0.3750000), wk =   0.0019531
        k(  325) = (   0.6250000   0.0000000   0.5000000), wk =   0.0019531
        k(  326) = (   0.6250000   0.0000000   0.6250000), wk =   0.0019531
        k(  327) = (   0.6250000   0.0000000   0.7500000), wk =   0.0019531
        k(  328) = (   0.6250000   0.0000000   0.8750000), wk =   0.0019531
        k(  329) = (   0.6250000   0.1250000  -0.0000000), wk =   0.0019531
        k(  330) = (   0.6250000   0.1250000   0.1250000), wk =   0.0019531
        k(  331) = (   0.6250000   0.1250000   0.2500000), wk =   0.0019531
        k(  332) = (   0.6250000   0.1250000   0.3750000), wk =   0.0019531
        k(  333) = (   0.6250000   0.1250000   0.5000000), wk =   0.0019531
        k(  334) = (   0.6250000   0.1250000   0.6250000), wk =   0.0019531
        k(  335) = (   0.6250000   0.1250000   0.7500000), wk =   0.0019531
        k(  336) = (   0.6250000   0.1250000   0.8750000), wk =   0.0019531
        k(  337) = (   0.6250000   0.2500000   0.0000000), wk =   0.0019531
        k(  338) = (   0.6250000   0.2500000   0.1250000), wk =   0.0019531
        k(  339) = (   0.6250000   0.2500000   0.2500000), wk =   0.0019531
        k(  340) = (   0.6250000   0.2500000   0.3750000), wk =   0.0019531
        k(  341) = (   0.6250000   0.2500000   0.5000000), wk =   0.0019531
        k(  342) = (   0.6250000   0.2500000   0.6250000), wk =   0.0019531
        k(  343) = (   0.6250000   0.2500000   0.7500000), wk =   0.0019531
        k(  344) = (   0.6250000   0.2500000   0.8750000), wk =   0.0019531
        k(  345) = (   0.6250000   0.3750000  -0.0000000), wk =   0.0019531
        k(  346) = (   0.6250000   0.3750000   0.1250000), wk =   0.0019531
        k(  347) = (   0.6250000   0.3750000   0.2500000), wk =   0.0019531
        k(  348) = (   0.6250000   0.3750000   0.3750000), wk =   0.0019531
        k(  349) = (   0.6250000   0.3750000   0.5000000), wk =   0.0019531
        k(  350) = (   0.6250000   0.3750000   0.6250000), wk =   0.0019531
        k(  351) = (   0.6250000   0.3750000   0.7500000), wk =   0.0019531
        k(  352) = (   0.6250000   0.3750000   0.8750000), wk =   0.0019531
        k(  353) = (   0.6250000   0.5000000   0.0000000), wk =   0.0019531
        k(  354) = (   0.6250000   0.5000000   0.1250000), wk =   0.0019531
        k(  355) = (   0.6250000   0.5000000   0.2500000), wk =   0.0019531
        k(  356) = (   0.6250000   0.5000000   0.3750000), wk =   0.0019531
        k(  357) = (   0.6250000   0.5000000   0.5000000), wk =   0.0019531
        k(  358) = (   0.6250000   0.5000000   0.6250000), wk =   0.0019531
        k(  359) = (   0.6250000   0.5000000   0.7500000), wk =   0.0019531
        k(  360) = (   0.6250000   0.5000000   0.8750000), wk =   0.0019531
        k(  361) = (   0.6250000   0.6250000   0.0000000), wk =   0.0019531
        k(  362) = (   0.6250000   0.6250000   0.1250000), wk =   0.0019531
        k(  363) = (   0.6250000   0.6250000   0.2500000), wk =   0.0019531
        k(  364) = (   0.6250000   0.6250000   0.3750000), wk =   0.0019531
        k(  365) = (   0.6250000   0.6250000   0.5000000), wk =   0.0019531
        k(  366) = (   0.6250000   0.6250000   0.6250000), wk =   0.0019531
        k(  367) = (   0.6250000   0.6250000   0.7500000), wk =   0.0019531
        k(  368) = (   0.6250000   0.6250000   0.8750000), wk =   0.0019531
        k(  369) = (   0.6250000   0.7500000  -0.0000000), wk =   0.0019531
        k(  370) = (   0.6250000   0.7500000   0.1250000), wk =   0.0019531
        k(  371) = (   0.6250000   0.7500000   0.2500000), wk =   0.0019531
        k(  372) = (   0.6250000   0.7500000   0.3750000), wk =   0.0019531
        k(  373) = (   0.6250000   0.7500000   0.5000000), wk =   0.0019531
        k(  374) = (   0.6250000   0.7500000   0.6250000), wk =   0.0019531
        k(  375) = (   0.6250000   0.7500000   0.7500000), wk =   0.0019531
        k(  376) = (   0.6250000   0.7500000   0.8750000), wk =   0.0019531
        k(  377) = (   0.6250000   0.8750000   0.0000000), wk =   0.0019531
        k(  378) = (   0.6250000   0.8750000   0.1250000), wk =   0.0019531
        k(  379) = (   0.6250000   0.8750000   0.2500000), wk =   0.0019531
        k(  380) = (   0.6250000   0.8750000   0.3750000), wk =   0.0019531
        k(  381) = (   0.6250000   0.8750000   0.5000000), wk =   0.0019531
        k(  382) = (   0.6250000   0.8750000   0.6250000), wk =   0.0019531
        k(  383) = (   0.6250000   0.8750000   0.7500000), wk =   0.0019531
        k(  384) = (   0.6250000   0.8750000   0.8750000), wk =   0.0019531
        k(  385) = (   0.7500000   0.0000000  -0.0000000), wk =   0.0019531
        k(  386) = (   0.7500000   0.0000000   0.1250000), wk =   0.0019531
        k(  387) = (   0.7500000   0.0000000   0.2500000), wk =   0.0019531
        k(  388) = (   0.7500000   0.0000000   0.3750000), wk =   0.0019531
        k(  389) = (   0.7500000   0.0000000   0.5000000), wk =   0.0019531
[...]
    10.3823  10.4457  10.5023  10.5442  10.6426  10.6521  10.7450  10.7608
    11.0532  11.1370  11.2282  11.2520  11.4752  11.4966  11.6482  11.6753
    11.9291  11.9579  12.0882  12.1434  12.4462  12.5235  13.0801  13.1608
    13.5380  13.5415  13.7322  13.7629  14.0425  14.0853  14.3188  14.3536
    14.6346  14.6915  14.7763  14.7848  14.8152  14.8282  15.1453  15.1502
    15.2827  15.3404  15.5244  15.5812  15.6356  15.6456  15.9413  15.9637
    16.0156  16.0188  16.0415  16.0545  16.0937  16.1104  16.6382  16.6628
    16.6957  16.7080  16.7498  16.7605  16.8077  16.8151  16.8529  16.8808
    16.8970  16.9367  16.9664  17.0005  17.3761  17.3770  17.4954  17.4959
    17.9432  17.9561  18.0596  18.0616  18.1711  18.1724  18.3694  18.3874

     occupation numbers 
     1.0000   1.0000   1.0000   1.0000   1.0000   1.0000   1.0000   1.0000
     1.0000   1.0000   1.0000   1.0000   1.0000   1.0000   1.0000   1.0000
     1.0000   1.0000   1.0000   1.0000   1.0000   1.0000   1.0000   1.0000
     1.0000   1.0000   1.0000   1.0000   1.0000   1.0000   1.0000   1.0000
     1.0000   1.0000   1.0000   1.0000   1.0000   1.0000   1.0000   1.0000
     1.0000   1.0000   1.0000   1.0000   1.0000   1.0000   1.0000   1.0000
     1.0000   1.0000   1.0000   1.0000   1.0000   1.0000   1.0000   1.0000
     1.0000   1.0000   1.0000   1.0000   1.0000   1.0000   1.0000   1.0000
     1.0000   1.0000   1.0000   1.0000   1.0000   1.0000   1.0000   1.0000
     1.0000   1.0000   1.0000   1.0000   1.0000   1.0000   1.0000   1.0000
     1.0000   1.0000   1.0000   1.0000   1.0000   1.0000   1.0000   1.0000
     1.0000   1.0000   1.0000   1.0000   1.0000   1.0000   1.0000   1.0000
     1.0000   1.0000   1.0000   1.0000   1.0000   1.0000   1.0000   1.0000
     1.0000   1.0000   1.0000   1.0000   1.0000   1.0000   1.0000   1.0000
     1.0000   1.0000   1.0000   1.0000   1.0000   1.0000   1.0000   1.0000
     1.0000   1.0000   1.0000   1.0000   1.0000   1.0000   1.0000   1.0000
     1.0000   1.0000   1.0000   1.0000   1.0027   1.0029   1.0460   1.0557
     1.0805   1.0777   0.0000   0.0000   0.0000   0.0000   0.0000   0.0000
     0.0000   0.0000   0.0000   0.0000   0.0000   0.0000   0.0000   0.0000
     0.0000   0.0000   0.0000   0.0000   0.0000   0.0000   0.0000   0.0000
     0.0000   0.0000   0.0000   0.0000   0.0000   0.0000   0.0000   0.0000
     0.0000   0.0000   0.0000   0.0000   0.0000   0.0000   0.0000   0.0000
     0.0000   0.0000   0.0000   0.0000   0.0000   0.0000   0.0000   0.0000
     0.0000   0.0000   0.0000   0.0000   0.0000   0.0000   0.0000   0.0000
     0.0000   0.0000   0.0000   0.0000   0.0000   0.0000   0.0000   0.0000
     0.0000   0.0000   0.0000   0.0000   0.0000   0.0000   0.0000   0.0000
     0.0000   0.0000   0.0000   0.0000   0.0000   0.0000   0.0000   0.0000
     0.0000   0.0000   0.0000   0.0000   0.0000   0.0000   0.0000   0.0000
     0.0000   0.0000   0.0000   0.0000   0.0000   0.0000   0.0000   0.0000
     0.0000   0.0000   0.0000   0.0000   0.0000   0.0000   0.0000   0.0000

          k = 1.5806 0.9125 0.7950 ( 23481 PWs)   bands (ev):

   -74.9199 -74.8241 -70.0244 -69.9285 -44.1516 -44.0558 -43.7425 -43.6464
   -43.2384 -43.1426 -39.1942 -39.0983 -38.7862 -38.6900 -38.4392 -38.3433
   -17.0034 -17.0033 -16.9999 -16.9998 -16.9956 -16.9956 -16.9950 -16.9949
   -16.8933 -16.8932 -16.8899 -16.8898 -16.8865 -16.8864 -16.8858 -16.8857
   -14.0269 -14.0268 -14.0231 -14.0230 -14.0174 -14.0173 -14.0136 -14.0135
   -14.0051 -14.0050 -14.0040 -14.0039 -13.9171 -13.9170 -13.9135 -13.9134
   -13.9079 -13.9078 -13.9044 -13.9043 -13.8961 -13.8960 -13.8947 -13.8946
    -4.9507  -4.9393  -4.9242  -4.9151  -4.7375  -4.7278  -4.7020  -4.6911
    -3.5041  -3.4812  -3.3660  -3.3457  -3.0927  -3.0683  -2.9432  -2.9161
    -1.6534  -1.6437  -1.5912  -1.5845  -1.2571  -1.2540  -1.2279  -1.2075
     1.8059   1.8538   1.9028   1.9236   1.9509   2.0130   2.0208   2.0534
     2.1102   2.1501   3.3248   3.3341   3.4409   3.4489   3.7604   3.7695
     3.9715   3.9941   4.0882   4.1460   4.2439   4.2817   4.4699   4.5008
     4.5543   4.5892   5.0476   5.0613   5.1707   5.1742   5.2573   5.2727
     5.2840   5.3094   5.6757   5.6942   5.7773   5.8021   5.8834   5.8960
     6.0565   6.0779   6.2289   6.2522   6.3505   6.3877   6.4481   6.4572
     6.6137   6.6813   6.7058   6.7216   7.0227   7.0680   7.1996   7.2165
     7.3028   7.3580   8.3378   8.3445   8.4589   8.4654   9.0046   9.0067
     9.0861   9.0995   9.4140   9.4715   9.5235   9.5760   9.7150   9.7569
     9.7926   9.8311   9.8982   9.9257  10.0813  10.1295  10.2253  10.2376
    10.3352  10.4177  10.4542  10.4571  10.5270  10.5501  10.6716  10.7081
    10.9920  11.0632  11.2221  11.2879  11.5280  11.5924  11.8440  11.8669
    12.0966  12.1217  12.2771  12.3513  12.4691  12.5069  12.7218  12.8147
    13.3610  13.3874  13.4100  13.4608  13.5315  13.5708  13.6583  13.6629
    13.7404  13.7610  14.0437  14.0750  14.1047  14.1732  14.3453  14.3768
    14.4072  14.4229  14.7388  14.7574  14.8101  14.8305  14.8502  14.8604
    14.9376  14.9494  15.0433  15.0768  15.2480  15.2584  15.5864  15.5940
    15.6892  15.6919  15.9831  15.9905  16.0449  16.0598  16.1175  16.1215
    16.3426  16.3498  16.5499  16.5505  16.6944  16.7138  16.9464  16.9585
    17.0531  17.0550  17.1399  17.1421  17.3181  17.3197  17.5891  17.5901

     occupation numbers 
     1.0000   1.0000   1.0000   1.0000   1.0000   1.0000   1.0000   1.0000
     1.0000   1.0000   1.0000   1.0000   1.0000   1.0000   1.0000   1.0000
     1.0000   1.0000   1.0000   1.0000   1.0000   1.0000   1.0000   1.0000
     1.0000   1.0000   1.0000   1.0000   1.0000   1.0000   1.0000   1.0000
     1.0000   1.0000   1.0000   1.0000   1.0000   1.0000   1.0000   1.0000
     1.0000   1.0000   1.0000   1.0000   1.0000   1.0000   1.0000   1.0000
     1.0000   1.0000   1.0000   1.0000   1.0000   1.0000   1.0000   1.0000
     1.0000   1.0000   1.0000   1.0000   1.0000   1.0000   1.0000   1.0000
     1.0000   1.0000   1.0000   1.0000   1.0000   1.0000   1.0000   1.0000
     1.0000   1.0000   1.0000   1.0000   1.0000   1.0000   1.0000   1.0000
     1.0000   1.0000   1.0000   1.0000   1.0000   1.0000   1.0000   1.0000
     1.0000   1.0000   1.0000   1.0000   1.0000   1.0000   1.0000   1.0000
     1.0000   1.0000   1.0000   1.0000   1.0000   1.0000   1.0000   1.0000
     1.0000   1.0000   1.0000   1.0000   1.0000   1.0000   1.0000   1.0000
     1.0000   1.0000   1.0000   1.0000   1.0000   1.0000   1.0000   1.0000
     1.0000   1.0000   1.0000   1.0000   1.0000   1.0000   1.0000   1.0000
     1.0001   1.0003   1.0005   1.0006   1.0341   1.0486   1.0832   1.0829
     1.0422   0.9722   0.0000   0.0000   0.0000   0.0000   0.0000   0.0000
     0.0000   0.0000   0.0000   0.0000   0.0000   0.0000   0.0000   0.0000
     0.0000   0.0000   0.0000   0.0000   0.0000   0.0000   0.0000   0.0000
     0.0000   0.0000   0.0000   0.0000   0.0000   0.0000   0.0000   0.0000
     0.0000   0.0000   0.0000   0.0000   0.0000   0.0000   0.0000   0.0000
     0.0000   0.0000   0.0000   0.0000   0.0000   0.0000   0.0000   0.0000
     0.0000   0.0000   0.0000   0.0000   0.0000   0.0000   0.0000   0.0000
     0.0000   0.0000   0.0000   0.0000   0.0000   0.0000   0.0000   0.0000
     0.0000   0.0000   0.0000   0.0000   0.0000   0.0000   0.0000   0.0000
     0.0000   0.0000   0.0000   0.0000   0.0000   0.0000   0.0000   0.0000
     0.0000   0.0000   0.0000   0.0000   0.0000   0.0000   0.0000   0.0000
     0.0000   0.0000   0.0000   0.0000   0.0000   0.0000   0.0000   0.0000
     0.0000   0.0000   0.0000   0.0000   0.0000   0.0000   0.0000   0.0000

          k = 0.7903 0.4563 0.8368 ( 23444 PWs)   bands (ev):

   -74.9199 -74.8242 -70.0244 -69.9285 -44.1515 -44.0557 -43.7426 -43.6465
   -43.2383 -43.1425 -39.1940 -39.0981 -38.7863 -38.6901 -38.4390 -38.3431
   -17.0044 -17.0044 -17.0008 -17.0008 -16.9954 -16.9954 -16.9949 -16.9949
   -16.8942 -16.8942 -16.8908 -16.8908 -16.8863 -16.8863 -16.8857 -16.8857
   -14.0277 -14.0276 -14.0230 -14.0230 -14.0168 -14.0168 -14.0120 -14.0120
   -14.0072 -14.0071 -14.0061 -14.0060 -13.9177 -13.9177 -13.9131 -13.9131
   -13.9075 -13.9075 -13.9028 -13.9028 -13.8982 -13.8981 -13.8970 -13.8969
    -5.3496  -5.3387  -5.3172  -5.3090  -5.1280  -5.1179  -5.0810  -5.0719
    -3.7748  -3.7524  -3.5870  -3.5653  -3.2765  -3.2703  -3.0510  -3.0436
    -1.4857  -1.4787  -1.2495  -1.2464  -0.8719  -0.8666  -0.6929  -0.6878
     1.7835   1.8153   1.8558   1.8803   1.9122   1.9529   2.0332   2.0482
     2.1300   2.1451   3.8713   3.8966   3.9678   3.9935   4.4345   4.4509
     4.4746   4.4899   4.8551   4.9102   4.9842   5.0380   5.2881   5.3490
     5.3895   5.4388   5.6628   5.6784   5.7141   5.7413   5.7776   5.8070
     5.8829   5.9427   6.1888   6.2072   6.3154   6.3309   6.3803   6.4128
     6.4565   6.4837   6.5660   6.6041   6.7769   6.7974   6.9259   6.9565
     7.0465   7.0735   7.1058   7.1096   7.2300   7.2715   7.4089   7.4386
     7.5374   7.5489   8.0508   8.0772   8.0888   8.1156   8.5664   8.5852
     8.6488   8.6686   9.2374   9.2982   9.4663   9.4835   9.5908   9.6016
     9.7005   9.7153   9.8107   9.8302   9.9179   9.9412   9.9673  10.0189
    10.0510  10.0778  10.1166  10.1334  10.1870  10.2237  10.2351  10.3314
    10.7834  10.8480  10.8805  10.9455  11.4580  11.5511  11.7392  11.8306
    12.0193  12.1050  12.4368  12.5160  12.7795  12.8118  12.8694  12.9217
    12.9614  13.0354  13.0672  13.0744  13.1563  13.1731  13.2976  13.3130
    13.4539  13.4768  13.5896  13.6784  13.8344  13.8730  13.9272  13.9568
    13.9789  13.9996  14.0496  14.0637  14.2307  14.2452  14.3392  14.3465
    14.5158  14.5344  14.6534  14.6624  14.7756  14.7806  15.0231  15.0270
    15.1558  15.1583  15.4540  15.4615  15.8250  15.8359  15.8497  15.8627
    15.9049  15.9069  16.0320  16.0478  16.1655  16.1860  16.2360  16.2440
    16.2960  16.3022  16.3561  16.3586  16.4758  16.4792  16.6954  16.6980

     occupation numbers 
     1.0000   1.0000   1.0000   1.0000   1.0000   1.0000   1.0000   1.0000
     1.0000   1.0000   1.0000   1.0000   1.0000   1.0000   1.0000   1.0000
     1.0000   1.0000   1.0000   1.0000   1.0000   1.0000   1.0000   1.0000
     1.0000   1.0000   1.0000   1.0000   1.0000   1.0000   1.0000   1.0000
     1.0000   1.0000   1.0000   1.0000   1.0000   1.0000   1.0000   1.0000
     1.0000   1.0000   1.0000   1.0000   1.0000   1.0000   1.0000   1.0000
     1.0000   1.0000   1.0000   1.0000   1.0000   1.0000   1.0000   1.0000
     1.0000   1.0000   1.0000   1.0000   1.0000   1.0000   1.0000   1.0000
     1.0000   1.0000   1.0000   1.0000   1.0000   1.0000   1.0000   1.0000
     1.0000   1.0000   1.0000   1.0000   1.0000   1.0000   1.0000   1.0000
     1.0000   1.0000   1.0000   1.0000   1.0000   1.0000   1.0000   1.0000
     1.0000   1.0000   1.0000   1.0000   1.0000   1.0000   1.0000   1.0000
     1.0000   1.0000   1.0000   1.0000   1.0000   1.0000   1.0000   1.0000
     1.0000   1.0000   1.0000   1.0000   1.0000   1.0000   1.0000   1.0000
     1.0000   1.0000   1.0000   1.0000   1.0000   1.0000   1.0000   1.0000
     1.0000   1.0000   1.0000   1.0001   1.0016   1.0022   1.0127   1.0179
     1.0414   1.0505   1.0616   1.0629   1.0811   1.0657   0.8748   0.8058
     0.5403   0.5087   0.0016   0.0010   0.0008   0.0005   0.0000   0.0000
     0.0000   0.0000   0.0000   0.0000   0.0000   0.0000   0.0000   0.0000
     0.0000   0.0000   0.0000   0.0000   0.0000   0.0000   0.0000   0.0000
     0.0000   0.0000   0.0000   0.0000   0.0000   0.0000   0.0000   0.0000
     0.0000   0.0000   0.0000   0.0000   0.0000   0.0000   0.0000   0.0000
     0.0000   0.0000   0.0000   0.0000   0.0000   0.0000   0.0000   0.0000
     0.0000   0.0000   0.0000   0.0000   0.0000   0.0000   0.0000   0.0000
     0.0000   0.0000   0.0000   0.0000   0.0000   0.0000   0.0000   0.0000
     0.0000   0.0000   0.0000   0.0000   0.0000   0.0000   0.0000   0.0000
     0.0000   0.0000   0.0000   0.0000   0.0000   0.0000   0.0000   0.0000
     0.0000   0.0000   0.0000   0.0000   0.0000   0.0000   0.0000   0.0000
     0.0000   0.0000   0.0000   0.0000   0.0000   0.0000   0.0000   0.0000
     0.0000   0.0000   0.0000   0.0000   0.0000   0.0000   0.0000   0.0000

          k = 0.0000 0.0000 0.8787 ( 23488 PWs)   bands (ev):

   -74.9199 -74.8242 -70.0244 -69.9285 -44.1514 -44.0557 -43.7426 -43.6465
   -43.2383 -43.1425 -39.1939 -39.0980 -38.7863 -38.6901 -38.4389 -38.3430
   -17.0050 -17.0049 -17.0014 -17.0013 -16.9953 -16.9951 -16.9951 -16.9950
   -16.8948 -16.8947 -16.8913 -16.8912 -16.8863 -16.8861 -16.8859 -16.8857
   -14.0286 -14.0284 -14.0238 -14.0237 -14.0160 -14.0159 -14.0112 -14.0111
   -14.0080 -14.0078 -14.0070 -14.0068 -13.9186 -13.9185 -13.9139 -13.9138
   -13.9068 -13.9067 -13.9020 -13.9019 -13.8991 -13.8989 -13.8979 -13.8977
    -5.4869  -5.4762  -5.4519  -5.4440  -5.2637  -5.2534  -5.2118  -5.2032
    -3.8780  -3.8557  -3.6706  -3.6486  -3.3561  -3.3542  -3.0999  -3.0972
    -1.4595  -1.4528  -1.1441  -1.1427  -0.7651  -0.7590  -0.5018  -0.4998
     1.7578   1.7850   1.8390   1.8546   1.8820   1.9358   2.0401   2.0557
     2.1369   2.1525   3.9510   3.9716   4.2034   4.2242   4.7144   4.7158
     5.1488   5.1489   5.2829   5.2851   5.4936   5.5066   5.7481   5.7522
     5.7922   5.7949   6.0762   6.1440   6.2068   6.2091   6.2432   6.3224
     6.3572   6.3630   6.3816   6.3893   6.4466   6.4624   6.6504   6.6582
     6.7402   6.7739   6.7945   6.8031   6.8558   6.9393   6.9668   6.9739
     7.1519   7.1827   7.2731   7.3040   7.4459   7.5319   7.5417   7.5843
     7.6396   7.6679   7.8623   7.8680   7.8798   7.8824   7.9960   8.0306
     8.1717   8.1786   8.9368   8.9954   9.2559   9.2968   9.3049   9.3625
     9.3999   9.4090   9.4761   9.4865   9.5837   9.6044   9.8181   9.8313
     9.9160   9.9443   9.9671  10.0568  10.0608  10.0681  10.1430  10.1614
    10.6254  10.7234  10.8834  10.9774  11.3492  11.4344  11.5979  11.6370
    11.7003  11.7312  12.5186  12.5861  12.5959  12.6824  12.7400  12.8354
    13.1852  13.2721  13.2747  13.2855  13.3052  13.3640  13.3780  13.3902
    13.5974  13.6069  13.7286  13.7672  13.7850  13.8177  13.8537  13.8552
    13.9923  14.0187  14.1419  14.1506  14.1655  14.1675  14.3123  14.3207
    14.3421  14.3552  14.6317  14.6478  14.7808  14.7926  14.8449  14.8530
    15.0980  15.0994  15.2131  15.2171  15.3918  15.3983  15.4329  15.4390
    15.4493  15.4589  15.6327  15.6415  15.6438  15.6543  15.7555  15.7613
    16.0710  16.0723  16.2690  16.2866  16.3089  16.3092  16.3190  16.3225

     occupation numbers 
     1.0000   1.0000   1.0000   1.0000   1.0000   1.0000   1.0000   1.0000
     1.0000   1.0000   1.0000   1.0000   1.0000   1.0000   1.0000   1.0000
     1.0000   1.0000   1.0000   1.0000   1.0000   1.0000   1.0000   1.0000
     1.0000   1.0000   1.0000   1.0000   1.0000   1.0000   1.0000   1.0000
     1.0000   1.0000   1.0000   1.0000   1.0000   1.0000   1.0000   1.0000
     1.0000   1.0000   1.0000   1.0000   1.0000   1.0000   1.0000   1.0000
     1.0000   1.0000   1.0000   1.0000   1.0000   1.0000   1.0000   1.0000
     1.0000   1.0000   1.0000   1.0000   1.0000   1.0000   1.0000   1.0000
     1.0000   1.0000   1.0000   1.0000   1.0000   1.0000   1.0000   1.0000
     1.0000   1.0000   1.0000   1.0000   1.0000   1.0000   1.0000   1.0000
     1.0000   1.0000   1.0000   1.0000   1.0000   1.0000   1.0000   1.0000
     1.0000   1.0000   1.0000   1.0000   1.0000   1.0000   1.0000   1.0000
     1.0000   1.0000   1.0000   1.0000   1.0000   1.0000   1.0000   1.0000
     1.0000   1.0000   1.0000   1.0000   1.0000   1.0000   1.0000   1.0000
     1.0000   1.0000   1.0000   1.0000   1.0000   1.0000   1.0002   1.0002
     1.0008   1.0015   1.0021   1.0024   1.0051   1.0148   1.0199   1.0215
     1.0757   1.0818   1.0648   1.0411   0.7875   0.5555   0.5285   0.4151
     0.2852   0.2289   0.0295   0.0274   0.0234   0.0226   0.0041   0.0023
     0.0002   0.0001   0.0000   0.0000   0.0000   0.0000   0.0000   0.0000
     0.0000   0.0000   0.0000   0.0000   0.0000   0.0000   0.0000   0.0000
     0.0000   0.0000   0.0000   0.0000   0.0000   0.0000   0.0000   0.0000
     0.0000   0.0000   0.0000   0.0000   0.0000   0.0000   0.0000   0.0000
     0.0000   0.0000   0.0000   0.0000   0.0000   0.0000   0.0000   0.0000
     0.0000   0.0000   0.0000   0.0000   0.0000   0.0000   0.0000   0.0000
     0.0000   0.0000   0.0000   0.0000   0.0000   0.0000   0.0000   0.0000
     0.0000   0.0000   0.0000   0.0000   0.0000   0.0000   0.0000   0.0000
     0.0000   0.0000   0.0000   0.0000   0.0000   0.0000   0.0000   0.0000
     0.0000   0.0000   0.0000   0.0000   0.0000   0.0000   0.0000   0.0000
     0.0000   0.0000   0.0000   0.0000   0.0000   0.0000   0.0000   0.0000
     0.0000   0.0000   0.0000   0.0000   0.0000   0.0000   0.0000   0.0000

     the Fermi energy is     7.5901 ev
     (compare with:     7.6533 eV, computed in scf)

     Writing all to output data dir ./tmp/MnBi2Te4.save/
 
     init_run     :     57.64s CPU     63.85s WALL (       1 calls)
     electrons    : 125546.94s CPU 127688.73s WALL (       1 calls)

     Called by init_run:
     wfcinit      :     55.91s CPU     61.80s WALL (       1 calls)
     wfcinit:atom :      0.18s CPU      0.31s WALL (     512 calls)
     wfcinit:wfcr :   6385.65s CPU   6486.67s WALL (     512 calls)
     potinit      :      0.82s CPU      0.95s WALL (       1 calls)
     hinit0       :      0.33s CPU      0.38s WALL (       1 calls)

     Called by electrons:
     c_bands      : 125546.63s CPU 127688.22s WALL (       1 calls)
     v_of_rho     :      0.25s CPU      0.32s WALL (       1 calls)
     v_h          :      0.01s CPU      0.01s WALL (       1 calls)
     v_xc         :      0.24s CPU      0.31s WALL (       1 calls)
     newd         :      0.50s CPU      0.52s WALL (       1 calls)
     PAW_pot      :      0.49s CPU      0.53s WALL (       1 calls)

     Called by c_bands:
     init_us_2    :      1.16s CPU      1.22s WALL (    1024 calls)
     init_us_2:cp :      1.16s CPU      1.22s WALL (    1024 calls)
     cegterg      : 119138.46s CPU 121173.44s WALL (    1135 calls)

     Called by sum_band:

     Called by *egterg:
     cdiaghg      :   1262.70s CPU   1308.72s WALL (   19951 calls)
     cegterg:over :   1055.86s CPU   1143.63s WALL (   19439 calls)
     cegterg:upda :    584.03s CPU    608.19s WALL (   19439 calls)
     cegterg:last :   1259.08s CPU   1312.67s WALL (    9944 calls)
     cdiaghg:chol :    140.81s CPU    143.12s WALL (   19951 calls)
     cdiaghg:inve :     24.35s CPU     24.73s WALL (   19951 calls)
     cdiaghg:para :    250.45s CPU    270.11s WALL (   39902 calls)
     h_psi        : 120705.28s CPU 122600.80s WALL (   21086 calls)
     s_psi        :    295.07s CPU    298.68s WALL (   21598 calls)
     g_psi        :      4.15s CPU      4.22s WALL (   19439 calls)

     Called by h_psi:
     h_psi:calbec :   1129.68s CPU   1257.08s WALL (   21086 calls)
     vloc_psi     : 118855.17s CPU 120596.04s WALL (   21086 calls)
     add_vuspsi   :    257.94s CPU    264.84s WALL (   21086 calls)
     vhpsi        :    454.98s CPU    473.97s WALL (   21086 calls)

     General routines
     calbec       :   1145.42s CPU   1276.91s WALL (   21598 calls)
     fft          :      0.10s CPU      0.14s WALL (      27 calls)
     fftw         : 110322.51s CPU 111985.71s WALL ( 9240148 calls)
     davcio       :      0.40s CPU      7.37s WALL (    2048 calls)
 
     Parallel routines

     Hubbard U routines
     vhpsi        :    454.98s CPU    473.97s WALL (   21086 calls)

     PAW routines
     PAW_pot      :      0.49s CPU      0.53s WALL (       1 calls)
 
     PWSCF        :   2d 2h 6m CPU   2d 2h49m WALL

 
   This run was terminated on:  19:14:46   4Oct2025            

=------------------------------------------------------------------------------=
   JOB DONE.
=------------------------------------------------------------------------------=
