
     Program PWSCF v.7.2 starts on  2Oct2025 at 14:38:23 

     This program is part of the open-source Quantum ESPRESSO suite
     for quantum simulation of materials; please cite
         "P. Giannozzi et al., J. Phys.:Condens. Matter 21 395502 (2009);
         "P. Giannozzi et al., J. Phys.:Condens. Matter 29 465901 (2017);
         "P. Giannozzi et al., J. Chem. Phys. 152 154105 (2020);
          URL http://www.quantum-espresso.org", 
     in publications or presentations arising from this work. More details at
     http://www.quantum-espresso.org/quote

     Parallel version (MPI), running on    64 processors

     MPI processes distributed on     1 nodes
     160447 MiB available memory on the printing compute node when the environment starts
 
     Reading input from MnBi2Te4.scf.in

     Current dimensions of program PWSCF are:
     Max number of different atomic species (ntypx) = 10
     Max number of k-points (npk) =  40000
     Max angular momentum in pseudopotentials (lmaxx) =  4
     Message from routine iosys:
     restart disabled: needed files not found
     file Mn.rel-pbe-spn-kjpaw_psl.0.3.1.UPF: wavefunction(s)  3P 3P 3D renormalized
     file Mn.rel-pbe-spn-kjpaw_psl.0.3.1.UPF: wavefunction(s)  3P 3P 3D renormalized
     file Bi.rel-pbe-dn-kjpaw_psl.1.0.0.UPF: wavefunction(s)  6P 6P 5D 5D renormalized
     file Te.rel-pbe-n-kjpaw_psl.1.0.0.UPF: wavefunction(s)  5S 5P 5P renormalized

     Fixed quantization axis for GGA:     0.000000    0.000000    1.000000
     Message from routine setup:
     using ibrav=0 with symmetry is DISCOURAGED, use correct ibrav instead
 
     R & G space division:  proc/nbgrp/npool/nimage =      64
     Subspace diagonalization in iterative solution of the eigenvalue problem:
     a serial algorithm will be used

 
     Parallelization info
     --------------------
     sticks:   dense  smooth     PW     G-vecs:    dense   smooth      PW
     Min         126     126     36                 2936     2936     465
     Max         127     127     37                 2938     2938     467
     Sum        8079    8079   2353               187971   187971   29827
 
     Using Slab Decomposition
 


     bravais-lattice index     =            0
     lattice parameter (alat)  =      51.7756  a.u.
     unit-cell volume          =    2994.5794 (a.u.)^3
     number of atoms/cell      =           14
     number of atomic types    =            4
     number of electrons       =       138.00
     number of Kohn-Sham states=          138
     kinetic-energy cutoff     =      60.0000  Ry
     charge density cutoff     =     240.0000  Ry
     scf convergence threshold =      1.0E-04
     mixing beta               =       0.7000
     number of iterations used =            8  plain     mixing
     Exchange-correlation= SLA  PW   PBX  PBC
                           (   1   4   3   4   0   0   0)
     Noncollinear calculation with spin-orbit

     Hubbard projectors: ortho-atomic
     Hubbard parameters of DFT+U (Liechtenstein formulation) in eV:
     U(Mn1-3d) =  4.0000
     U(Mn2-3d) =  4.0000
     DFT+U on averaged j=l+1/2,l-1/2 radial WFs

     Internal variables: lda_plus_u = T, lda_plus_u_kind = 1

     celldm(1)=  51.775642  celldm(2)=   0.000000  celldm(3)=   0.000000
     celldm(4)=   0.000000  celldm(5)=   0.000000  celldm(6)=   0.000000

     crystal axes: (cart. coord. in units of alat)
               a(1) = (   0.079085  -0.045660   0.995822 )  
               a(2) = (   0.000000   0.091319   0.995822 )  
               a(3) = (  -0.079085  -0.045660   0.995822 )  

     reciprocal axes: (cart. coord. in units 2 pi/alat)
               b(1) = (  6.322314 -3.650196  0.334731 )  
               b(2) = (  0.000000  7.300392  0.334734 )  
               b(3) = ( -6.322314 -3.650196  0.334731 )  


     PseudoPot. # 1 for Mn read from file:
     ./Mn.rel-pbe-spn-kjpaw_psl.0.3.1.UPF
     MD5 check sum: dfba1c7561257014502ac20495784078
     Pseudo is Projector augmented-wave + core cor, Zval = 15.0
     Generated using &quot;atomic&quot; code by A. Dal Corso  v.6.2.2
     Shape of augmentation charge: PSQ
     Using radial grid of 1187 points, 10 beta functions with: 
                l(1) =   0
                l(2) =   0
                l(3) =   1
                l(4) =   1
                l(5) =   1
                l(6) =   1
                l(7) =   2
                l(8) =   2
                l(9) =   2
               l(10) =   2
     Q(r) pseudized with 0 coefficients 


     PseudoPot. # 2 for Mn read from file:
     ./Mn.rel-pbe-spn-kjpaw_psl.0.3.1.UPF
     MD5 check sum: dfba1c7561257014502ac20495784078
     Pseudo is Projector augmented-wave + core cor, Zval = 15.0
     Generated using &quot;atomic&quot; code by A. Dal Corso  v.6.2.2
     Shape of augmentation charge: PSQ
     Using radial grid of 1187 points, 10 beta functions with: 
                l(1) =   0
                l(2) =   0
                l(3) =   1
                l(4) =   1
                l(5) =   1
                l(6) =   1
                l(7) =   2
                l(8) =   2
                l(9) =   2
               l(10) =   2
     Q(r) pseudized with 0 coefficients 


     PseudoPot. # 3 for Bi read from file:
     ./Bi.rel-pbe-dn-kjpaw_psl.1.0.0.UPF
     MD5 check sum: 8010b987e9fb97324c8de82fb26a3f7d
     Pseudo is Projector augmented-wave + core cor, Zval = 15.0
     Generated using &quot;atomic&quot; code by A. Dal Corso  v.6.2.2
     Shape of augmentation charge: PSQ
     Using radial grid of 1283 points, 10 beta functions with: 
                l(1) =   0
                l(2) =   0
                l(3) =   1
                l(4) =   1
                l(5) =   1
                l(6) =   1
                l(7) =   2
                l(8) =   2
                l(9) =   2
               l(10) =   2
     Q(r) pseudized with 0 coefficients 


     PseudoPot. # 4 for Te read from file:
     ./Te.rel-pbe-n-kjpaw_psl.1.0.0.UPF
     MD5 check sum: 8399411061dffbb19b40ade5049f5146
     Pseudo is Projector augmented-wave + core cor, Zval =  6.0
     Generated using &quot;atomic&quot; code by A. Dal Corso  v.6.3
     Shape of augmentation charge: PSQ
     Using radial grid of 1245 points, 10 beta functions with: 
                l(1) =   0
                l(2) =   0
                l(3) =   1
                l(4) =   1
                l(5) =   1
                l(6) =   1
                l(7) =   2
                l(8) =   2
                l(9) =   2
               l(10) =   2
     Q(r) pseudized with 0 coefficients 


     atomic species   valence    mass     pseudopotential
        Mn1           15.00    54.93800     Mn( 1.00)
        Mn2           15.00    54.93800     Mn( 1.00)
        Bi            15.00   208.98000     Bi( 1.00)
        Te             6.00   127.60300     Te( 1.00)

      4 Sym. Ops., with inversion, found


                                    s                        frac. trans.

      isym =  1     identity                                     

 Time Reversal            0
 cryst.   s( 1) = (     1          0          0      )
                  (     0          1          0      )
                  (     0          0          1      )

 cart.    s( 1) = (  1.0000000  0.0000000  0.0000000 )
                  (  0.0000000  1.0000000 -0.0000000 )
                  (  0.0000000  0.0000000  1.0000000 )


      isym =  2     180 deg rotation - cart. axis [1,0,0]        

 Time Reversal            1
 cryst.   s( 2) = (     0          0         -1      )
                  (     0         -1          0      )
                  (    -1          0          0      )

 cart.    s( 2) = (  1.0000000  0.0000000  0.0000000 )
                  (  0.0000000 -1.0000000  0.0000000 )
                  (  0.0000000  0.0000000 -1.0000000 )


      isym =  3     inversion                                    

 Time Reversal            0
 cryst.   s( 3) = (    -1          0          0      )
                  (     0         -1          0      )
                  (     0          0         -1      )

 cart.    s( 3) = ( -1.0000000  0.0000000  0.0000000 )
                  (  0.0000000 -1.0000000  0.0000000 )
                  (  0.0000000  0.0000000 -1.0000000 )


      isym =  4     inv. 180 deg rotation - cart. axis [1,0,0]   

 Time Reversal            1
 cryst.   s( 4) = (     0          0          1      )
                  (     0          1          0      )
                  (     1          0          0      )

 cart.    s( 4) = ( -1.0000000  0.0000000  0.0000000 )
                  (  0.0000000  1.0000000 -0.0000000 )
                  (  0.0000000  0.0000000  1.0000000 )


   Cartesian axes

     site n.     atom                  positions (alat units)
         1           Mn1 tau(   1) = (   0.0000000   0.0000000   0.0000000  )
         2           Mn2 tau(   2) = (   0.0000000  -0.0000005   1.4937325  )
         3           Bi  tau(   3) = (   0.0000000  -0.0000002   0.6346869  )
         4           Bi  tau(   4) = (   0.0000000  -0.0000007   2.1284194  )
         5           Bi  tau(   5) = (   0.0000000  -0.0000003   0.8590455  )
         6           Bi  tau(   6) = (   0.0000000  -0.0000008   2.3527780  )
         7           Te  tau(   7) = (   0.0000000  -0.0000001   0.1992042  )
         8           Te  tau(   8) = (   0.0000000  -0.0000006   1.6929366  )
         9           Te  tau(   9) = (   0.0000000  -0.0000004   1.2945283  )
        10           Te  tau(  10) = (   0.0000000  -0.0000009   2.7882608  )
        11           Te  tau(  11) = (   0.0000000  -0.0000001   0.4392470  )
        12           Te  tau(  12) = (   0.0000000  -0.0000006   1.9329794  )
        13           Te  tau(  13) = (   0.0000000  -0.0000004   1.0544855  )
        14           Te  tau(  14) = (   0.0000000  -0.0000009   2.5482179  )

     --------------------------------------------
     DFT-D3 Dispersion Correction (3-body terms):
     --------------------------------------------
       Reference C6 values for interpolation: 

         atom   Coordination number   C6
         Mn1        0.000          1605.50
         Mn1        1.641           479.11
         Mn1        9.885           227.69
         Mn2        0.000          1605.50
         Mn2        1.641           479.11
         Mn2        9.885           227.69
         Te         0.000           851.07
         Te         0.981           850.20
         Te         1.964           837.16
         Bi         0.000          1235.06
         Bi         0.982          1188.09
         Bi         1.966          1132.10
         Bi         2.950          1067.76

       Values used:

         atom   Coordination number  R0_AB[au]  C6      C8
         Mn1        3.848            3.351    479.11  48433.79
         Mn2        3.848            3.351    479.11  48433.79
         Bi         5.275            3.890   1067.76 147315.96
         Bi         5.275            3.890   1067.76 147315.96
         Bi         5.275            3.890   1067.76 147315.96
         Bi         5.275            3.890   1067.76 147315.96
         Te         3.328            3.676    837.16  84978.06
         Te         3.328            3.676    837.16  84978.06
         Te         3.328            3.676    837.16  84978.06
         Te         3.328            3.676    837.16  84978.06
         Te         4.238            3.676    837.16  84978.05
         Te         4.238            3.676    837.16  84978.05
         Te         4.238            3.676    837.16  84978.05
         Te         4.238            3.676    837.16  84978.05

         Molecular C6 ( Ry / a.u.^6 ) =    164642.77


   Crystallographic axes

     site n.     atom                  positions (cryst. coord.)
         1           Mn1 tau(   1) = (  0.0000000  0.0000000  0.0000000  )
         2           Mn2 tau(   2) = (  0.5000000  0.5000000  0.5000000  )
         3           Bi  tau(   3) = (  0.2124500  0.2124500  0.2124500  )
         4           Bi  tau(   4) = (  0.7124500  0.7124500  0.7124500  )
         5           Bi  tau(   5) = (  0.2875500  0.2875500  0.2875500  )
         6           Bi  tau(   6) = (  0.7875500  0.7875500  0.7875500  )
         7           Te  tau(   7) = (  0.0666800  0.0666800  0.0666800  )
         8           Te  tau(   8) = (  0.5666800  0.5666800  0.5666800  )
         9           Te  tau(   9) = (  0.4333200  0.4333200  0.4333200  )
        10           Te  tau(  10) = (  0.9333200  0.9333200  0.9333200  )
        11           Te  tau(  11) = (  0.1470300  0.1470300  0.1470300  )
        12           Te  tau(  12) = (  0.6470300  0.6470300  0.6470300  )
        13           Te  tau(  13) = (  0.3529700  0.3529700  0.3529700  )
        14           Te  tau(  14) = (  0.8529700  0.8529700  0.8529700  )

     number of k points=    24
                       cart. coord. in units 2pi/alat
        k(    1) = (   0.0000000   0.0000000   0.0000000), wk =   0.0156250
        k(    2) = (  -1.5805784  -0.9125490   0.0836827), wk =   0.0625000
        k(    3) = (   3.1611569   1.8250979  -0.1673654), wk =   0.0312500
        k(    4) = (   0.0000000   1.8250979   0.0836836), wk =   0.0312500
        k(    5) = (  -1.5805784   0.9125490   0.1673663), wk =   0.0625000
        k(    6) = (   3.1611569   3.6501959  -0.0836818), wk =   0.0625000
        k(    7) = (   1.5805784   2.7376469   0.0000009), wk =   0.0625000
        k(    8) = (   0.0000000  -3.6501959  -0.1673672), wk =   0.0156250
        k(    9) = (  -1.5805784  -4.5627449  -0.0836845), wk =   0.0625000
        k(   10) = (   3.1611569  -1.8250979  -0.3347326), wk =   0.0312500
        k(   11) = (   0.0000000  -1.8250979   0.1673654), wk =   0.0312500
        k(   12) = (   4.7417353   0.9125490  -0.0836827), wk =   0.0625000
        k(   13) = (   3.1611569   0.0000000   0.0000000), wk =   0.0312500
        k(   14) = (   0.0000000   0.0000000   0.2510490), wk =   0.0312500
        k(   15) = (   4.7417353   2.7376469   0.0000009), wk =   0.0625000
        k(   16) = (   3.1611569   1.8250979   0.0836836), wk =   0.0625000
        k(   17) = (   0.0000000  -5.4752938  -0.0000018), wk =   0.0312500
        k(   18) = (   4.7417353  -2.7376469  -0.2510499), wk =   0.0625000
        k(   19) = (   3.1611569  -3.6501959  -0.1673672), wk =   0.0312500
        k(   20) = (   0.0000000  -3.6501959   0.0836818), wk =   0.0312500
        k(   21) = (   4.7417353  -0.9125490  -0.1673663), wk =   0.0625000
        k(   22) = (   0.0000000   3.6501959  -0.3347307), wk =   0.0156250
        k(   23) = (   0.0000000   5.4752938  -0.2510471), wk =   0.0312500
        k(   24) = (   0.0000000   0.0000000  -0.5020979), wk =   0.0156250

                       cryst. coord.
        k(    1) = (   0.0000000   0.0000000   0.0000000), wk =   0.0156250
        k(    2) = (   0.0000000   0.0000000   0.2500000), wk =   0.0625000
        k(    3) = (   0.0000000  -0.0000000  -0.5000000), wk =   0.0312500
        k(    4) = (   0.0000000   0.2500000   0.0000000), wk =   0.0312500
        k(    5) = (   0.0000000   0.2500000   0.2500000), wk =   0.0625000
        k(    6) = (   0.0000000   0.2500000  -0.5000000), wk =   0.0625000
        k(    7) = (   0.0000000   0.2500000  -0.2500000), wk =   0.0625000
        k(    8) = (   0.0000000  -0.5000000   0.0000000), wk =   0.0156250
        k(    9) = (   0.0000000  -0.5000000   0.2500000), wk =   0.0625000
        k(   10) = (   0.0000000  -0.5000000  -0.5000000), wk =   0.0312500
        k(   11) = (   0.2500000   0.0000000   0.2500000), wk =   0.0312500
        k(   12) = (   0.2500000  -0.0000000  -0.5000000), wk =   0.0625000
        k(   13) = (   0.2500000   0.0000000  -0.2500000), wk =   0.0312500
        k(   14) = (   0.2500000   0.2500000   0.2500000), wk =   0.0312500
        k(   15) = (   0.2500000   0.2500000  -0.5000000), wk =   0.0625000
        k(   16) = (   0.2500000   0.2500000  -0.2500000), wk =   0.0625000
        k(   17) = (   0.2500000  -0.5000000   0.2500000), wk =   0.0312500
        k(   18) = (   0.2500000  -0.5000000  -0.5000000), wk =   0.0625000
        k(   19) = (   0.2500000  -0.5000000  -0.2500000), wk =   0.0312500
        k(   20) = (   0.2500000  -0.2500000   0.2500000), wk =   0.0312500
        k(   21) = (   0.2500000  -0.2500000  -0.5000000), wk =   0.0625000
        k(   22) = (  -0.5000000  -0.0000000  -0.5000000), wk =   0.0156250
        k(   23) = (  -0.5000000   0.2500000  -0.5000000), wk =   0.0312500
        k(   24) = (  -0.5000000  -0.5000000  -0.5000000), wk =   0.0156250

     Dense  grid:   187971 G-vectors     FFT dimensions: ( 256, 256, 256)

     Dynamical RAM for                 wfc:       1.55 MB

     Dynamical RAM for     wfc (w. buffer):      38.64 MB

     Dynamical RAM for             U proj.:       0.49 MB

     Dynamical RAM for  U proj. (w. buff.):      12.32 MB

     Dynamical RAM for           str. fact:       0.18 MB

     Dynamical RAM for           local pot:       0.00 MB

     Dynamical RAM for          nlocal pot:       2.67 MB

     Dynamical RAM for                qrad:      13.03 MB

     Dynamical RAM for          rho,v,vnew:      24.54 MB

     Dynamical RAM for               rhoin:       8.18 MB

     Dynamical RAM for            rho*nmix:       2.87 MB

     Dynamical RAM for           G-vectors:       0.19 MB

     Dynamical RAM for          h,s,v(r/c):       3.49 MB

     Dynamical RAM for          <psi|beta>:       2.00 MB

     Dynamical RAM for                 psi:       3.09 MB

     Dynamical RAM for                hpsi:       3.09 MB

     Dynamical RAM for                spsi:       3.09 MB

     Dynamical RAM for      wfcinit/wfcrot:       2.76 MB

     Dynamical RAM for           addusdens:      27.83 MB

     Estimated static dynamical RAM per process >     115.97 MB

     Estimated max dynamical RAM per process >     146.67 MB

     Estimated total dynamical RAM >       9.17 GB

     Check: negative core charge=   -0.000015
     Generating pointlists ...
     new r_m :   0.0448 (alat units)  2.3181 (a.u.) for type    1
     new r_m :   0.0448 (alat units)  2.3181 (a.u.) for type    2
     new r_m :   0.0456 (alat units)  2.3625 (a.u.) for type    3
     new r_m :   0.0448 (alat units)  2.3181 (a.u.) for type    4
     Cannot read rho : file not found

     Initial potential from superposition of free atoms

     starting charge     137.9938, renormalised to     138.0000
 --- in v_hubbard ---
Hub. E (dc, noflip, flip, total)    5.8799   5.8799  -0.0000   0.0000
 -------

     STARTING HUBBARD OCCUPATIONS:

     ================= HUBBARD OCCUPATIONS ================
     ------------------------ ATOM    1 ------------------------
     Tr[ns(  1)] (up, down, total) =   5.00000  0.00000  5.00000
     eigenvalues:
       0.000  0.000  0.000  0.000  0.000  1.000  1.000  1.000  1.000  1.000
     eigenvectors (columns):
       0.000  0.000  0.000  0.000  0.000  1.000  0.000  0.000  0.000  0.000
       0.000  0.000  0.000  0.000  0.000  0.000  1.000  0.000  0.000  0.000
       0.000  0.000  0.000  0.000  0.000  0.000  0.000  1.000  0.000  0.000
       0.000  0.000  0.000  0.000  0.000  0.000  0.000  0.000  1.000  0.000
       0.000  0.000  0.000  0.000  0.000  0.000  0.000  0.000  0.000  1.000
       1.000  0.000  0.000  0.000  0.000  0.000  0.000  0.000  0.000  0.000
       0.000  1.000  0.000  0.000  0.000  0.000  0.000  0.000  0.000  0.000
       0.000  0.000  1.000  0.000  0.000  0.000  0.000  0.000  0.000  0.000
       0.000  0.000  0.000  1.000  0.000  0.000  0.000  0.000  0.000  0.000
       0.000  0.000  0.000  0.000  1.000  0.000  0.000  0.000  0.000  0.000
     occupations, | n_(i1, i2)^(sigma1, sigma2) |:
       1.000  0.000  0.000  0.000  0.000  0.000  0.000  0.000  0.000  0.000
       0.000  1.000  0.000  0.000  0.000  0.000  0.000  0.000  0.000  0.000
       0.000  0.000  1.000  0.000  0.000  0.000  0.000  0.000  0.000  0.000
       0.000  0.000  0.000  1.000  0.000  0.000  0.000  0.000  0.000  0.000
       0.000  0.000  0.000  0.000  1.000  0.000  0.000  0.000  0.000  0.000
       0.000  0.000  0.000  0.000  0.000  0.000  0.000  0.000  0.000  0.000
       0.000  0.000  0.000  0.000  0.000  0.000  0.000  0.000  0.000  0.000
       0.000  0.000  0.000  0.000  0.000  0.000  0.000  0.000  0.000  0.000
       0.000  0.000  0.000  0.000  0.000  0.000  0.000  0.000  0.000  0.000
       0.000  0.000  0.000  0.000  0.000  0.000  0.000  0.000  0.000  0.000
     Atomic magnetic moment mx, my, mz =     0.000000    0.000000    5.000000
     ------------------------ ATOM    2 ------------------------
     Tr[ns(  2)] (up, down, total) =   0.00000  5.00000  5.00000
     eigenvalues:
      -0.000 -0.000 -0.000 -0.000 -0.000  1.000  1.000  1.000  1.000  1.000
     eigenvectors (columns):
       0.000  0.000  1.000  0.000  0.000  0.000  0.000  0.000  0.000  0.000
      -1.000  0.000  0.000  0.000  0.000  0.000  0.000 -0.000  0.000  0.000
       0.000  0.000  0.000  1.000  0.000  0.000  0.000  0.000  0.000  0.000
       0.000 -1.000  0.000  0.000  0.000  0.000  0.000  0.000  0.000  0.000
       0.000  0.000  0.000  0.000  1.000  0.000  0.000  0.000  0.000  0.000
       0.000  0.000 -0.000  0.000  0.000  0.000  0.000  0.000  0.000  1.000
       0.000  0.000  0.000  0.000  0.000  0.000  0.000 -1.000  0.000  0.000
       0.000  0.000  0.000 -0.000  0.000  0.000  1.000  0.000  0.000  0.000
       0.000  0.000  0.000  0.000  0.000  1.000  0.000  0.000  0.000  0.000
       0.000  0.000  0.000  0.000 -0.000  0.000  0.000  0.000  1.000  0.000
     occupations, | n_(i1, i2)^(sigma1, sigma2) |:
       0.000  0.000  0.000  0.000  0.000  0.000  0.000  0.000  0.000  0.000
       0.000  0.000  0.000  0.000  0.000  0.000  0.000  0.000  0.000  0.000
       0.000  0.000  0.000  0.000  0.000  0.000  0.000  0.000  0.000  0.000
       0.000  0.000  0.000  0.000  0.000  0.000  0.000  0.000  0.000  0.000
       0.000  0.000  0.000  0.000  0.000  0.000  0.000  0.000  0.000  0.000
       0.000  0.000  0.000  0.000  0.000  1.000  0.000  0.000  0.000  0.000
       0.000  0.000  0.000  0.000  0.000  0.000  1.000  0.000  0.000  0.000
       0.000  0.000  0.000  0.000  0.000  0.000  0.000  1.000  0.000  0.000
       0.000  0.000  0.000  0.000  0.000  0.000  0.000  0.000  1.000  0.000
       0.000  0.000  0.000  0.000  0.000  0.000  0.000  0.000  0.000  1.000
     Atomic magnetic moment mx, my, mz =     0.000000    0.000000   -5.000000

     Number of occupied Hubbard levels =   10.0000

 ==============================================================================
     atom number    1 relative position :    0.0000   0.0000   0.0000
     charge :    13.702625  (integrated on a sphere of radius 0.045)
     magnetization :          0.000000    0.000000    4.474670
     magnetization/charge:    0.000000    0.000000    0.326556
     polar coord.: r, theta, phi [deg] :     4.474670    0.000000  360.000000

 ==============================================================================

 ==============================================================================
     atom number    2 relative position :    0.0000  -0.0000   1.4937
     charge :    13.702625  (integrated on a sphere of radius 0.045)
     magnetization :          0.000000    0.000000   -4.474670
     magnetization/charge:    0.000000    0.000000   -0.326556
     polar coord.: r, theta, phi [deg] :     4.474670  180.000000  360.000000

 ==============================================================================

 ==============================================================================
     atom number    3 relative position :    0.0000  -0.0000   0.6347
     charge :    12.834981  (integrated on a sphere of radius 0.046)
     magnetization :          0.000000    0.000000   -0.000781
     magnetization/charge:    0.000000    0.000000   -0.000061
     polar coord.: r, theta, phi [deg] :     0.000781  180.000000  360.000000

 ==============================================================================

 ==============================================================================
     atom number    4 relative position :    0.0000  -0.0000   2.1284
     charge :    12.834981  (integrated on a sphere of radius 0.046)
     magnetization :         -0.000000    0.000000    0.000781
     magnetization/charge:   -0.000000    0.000000    0.000061
     polar coord.: r, theta, phi [deg] :     0.000781    0.000000  360.000000

 ==============================================================================

 ==============================================================================
     atom number    5 relative position :    0.0000  -0.0000   0.8590
     charge :    12.834981  (integrated on a sphere of radius 0.046)
     magnetization :         -0.000000    0.000000    0.000781
     magnetization/charge:   -0.000000    0.000000    0.000061
     polar coord.: r, theta, phi [deg] :     0.000781    0.000000  360.000000

 ==============================================================================

 ==============================================================================
     atom number    6 relative position :    0.0000  -0.0000   2.3528
     charge :    12.834981  (integrated on a sphere of radius 0.046)
     magnetization :          0.000000    0.000000   -0.000781
     magnetization/charge:    0.000000    0.000000   -0.000061
     polar coord.: r, theta, phi [deg] :     0.000781  180.000000  360.000000

 ==============================================================================

 ==============================================================================
     atom number    7 relative position :    0.0000  -0.0000   0.1992
     charge :     3.754753  (integrated on a sphere of radius 0.045)
     magnetization :         -0.000000    0.000000    0.000018
     magnetization/charge:   -0.000000    0.000000    0.000005
     polar coord.: r, theta, phi [deg] :     0.000018    0.000000  360.000000

 ==============================================================================

 ==============================================================================
     atom number    8 relative position :    0.0000  -0.0000   1.6929
     charge :     3.754753  (integrated on a sphere of radius 0.045)
     magnetization :          0.000000    0.000000   -0.000018
     magnetization/charge:    0.000000    0.000000   -0.000005
     polar coord.: r, theta, phi [deg] :     0.000018  180.000000  360.000000

 ==============================================================================

 ==============================================================================
     atom number    9 relative position :    0.0000  -0.0000   1.2945
     charge :     3.754753  (integrated on a sphere of radius 0.045)
     magnetization :          0.000000    0.000000   -0.000018
     magnetization/charge:    0.000000    0.000000   -0.000005
     polar coord.: r, theta, phi [deg] :     0.000018  180.000000  360.000000

 ==============================================================================

 ==============================================================================
     atom number   10 relative position :    0.0000  -0.0000   2.7883
     charge :     3.754753  (integrated on a sphere of radius 0.045)
     magnetization :         -0.000000    0.000000    0.000018
     magnetization/charge:   -0.000000    0.000000    0.000005
     polar coord.: r, theta, phi [deg] :     0.000018    0.000000  360.000000

 ==============================================================================

 ==============================================================================
     atom number   11 relative position :    0.0000  -0.0000   0.4392
     charge :     3.788446  (integrated on a sphere of radius 0.045)
     magnetization :          0.000000    0.000000   -0.035317
     magnetization/charge:    0.000000    0.000000   -0.009322
     polar coord.: r, theta, phi [deg] :     0.035317  180.000000  360.000000

 ==============================================================================

 ==============================================================================
     atom number   12 relative position :    0.0000  -0.0000   1.9330
     charge :     3.788446  (integrated on a sphere of radius 0.045)
     magnetization :         -0.000000    0.000000    0.035317
     magnetization/charge:   -0.000000    0.000000    0.009322
     polar coord.: r, theta, phi [deg] :     0.035317    0.000000  360.000000

 ==============================================================================

 ==============================================================================
     atom number   13 relative position :    0.0000  -0.0000   1.0545
     charge :     3.788446  (integrated on a sphere of radius 0.045)
     magnetization :         -0.000000    0.000000    0.035317
     magnetization/charge:   -0.000000    0.000000    0.009322
     polar coord.: r, theta, phi [deg] :     0.035317    0.000000  360.000000

 ==============================================================================

 ==============================================================================
     atom number   14 relative position :    0.0000  -0.0000   2.5482
     charge :     3.788446  (integrated on a sphere of radius 0.045)
     magnetization :          0.000000    0.000000   -0.035317
     magnetization/charge:    0.000000    0.000000   -0.009322
     polar coord.: r, theta, phi [deg] :     0.035317  180.000000  360.000000

 ==============================================================================

     Atomic wfc used for Hubbard projectors are orthogonalized

     Message from routine qexsd_readschema :
     xml data file ./tmp/MnBi2Te4.save/data-file-schema.xml not found
     Cannot read wfcs: file not found
     Starting wfcs are  176 randomized atomic wfcs
     Checking if some PAW data can be deallocated... 
       PAW data deallocated on   59 nodes for type:  1
       PAW data deallocated on   59 nodes for type:  2
       PAW data deallocated on   44 nodes for type:  3
       PAW data deallocated on   30 nodes for type:  4

     total cpu time spent up to now is       78.3 secs

     Self-consistent Calculation

     iteration #  1     ecut=    60.00 Ry     beta= 0.70
     Davidson diagonalization with overlap

---- Real-time Memory Report at c_bands before calling an iterative solver
           277 MiB given to the printing process from OS
             0 MiB allocation reported by mallinfo(arena+hblkhd)
        147521 MiB available memory on the node where the printing process lives
------------------
     c_bands:  4 eigenvalues not converged
     c_bands:  4 eigenvalues not converged
     c_bands:  4 eigenvalues not converged
     ethr =  1.00E-05,  avg # of iterations = 13.8

     ================= HUBBARD OCCUPATIONS ================
     ------------------------ ATOM    1 ------------------------
     Tr[ns(  1)] (up, down, total) =   4.98434  0.30060  5.28493
     eigenvalues:
       0.021  0.022  0.023  0.117  0.118  0.994  0.995  0.998  0.999  0.999
     eigenvectors (columns):
       0.000 -0.000  0.004 -0.005  0.000 -0.000  0.000  0.000  0.031 -0.999
       0.000 -0.000  0.000 -0.000 -0.000  0.000  0.000 -0.000  0.000  0.000
       0.005  0.002  0.000 -0.000 -0.002 -0.536  0.512  0.464  0.485  0.016
       0.000 -0.002 -0.000 -0.000 -0.003  0.465 -0.484  0.535  0.513  0.016
       0.000 -0.000  0.000 -0.000 -0.000 -0.000 -0.000 -0.000  0.000  0.000
      -0.000  0.000 -0.000 -0.000  0.000  0.000  0.000 -0.000  0.000  0.000
       0.036  0.438  0.402 -0.576  0.560  0.000 -0.003  0.000  0.002  0.005
       0.000  0.000 -0.000  0.000  0.000  0.000  0.000  0.000 -0.000 -0.000
       0.000  0.000 -0.000 -0.000 -0.000 -0.000  0.000  0.000 -0.000 -0.000
       0.045  0.541  0.592  0.390 -0.451  0.000 -0.003 -0.000 -0.002  0.000
     occupations, | n_(i1, i2)^(sigma1, sigma2) |:
       0.999  0.000  0.000  0.000  0.000  0.000  0.004  0.004  0.001  0.001
       0.000  0.996  0.000  0.000  0.002  0.005  0.000  0.000  0.002  0.002
       0.000  0.000  0.996  0.002  0.000  0.005  0.000  0.000  0.002  0.002
       0.000  0.000  0.002  0.997  0.000  0.000  0.002  0.002  0.000  0.000
       0.000  0.002  0.000  0.000  0.997  0.000  0.002  0.002  0.000  0.000
       0.000  0.005  0.005  0.000  0.000  0.021  0.000  0.000  0.000  0.000
       0.004  0.000  0.000  0.002  0.002  0.000  0.084  0.004  0.002  0.045
       0.004  0.000  0.000  0.002  0.002  0.000  0.004  0.084  0.045  0.002
       0.001  0.002  0.002  0.000  0.000  0.000  0.002  0.045  0.056  0.004
       0.001  0.002  0.002  0.000  0.000  0.000  0.045  0.002  0.004  0.056
     Atomic magnetic moment mx, my, mz =     0.000000    0.000007    4.683741
     ------------------------ ATOM    2 ------------------------
     Tr[ns(  2)] (up, down, total) =   0.30069  4.98434  5.28503
     eigenvalues:
       0.021  0.022  0.023  0.117  0.118  0.994  0.995  0.998  0.999  0.999
     eigenvectors (columns):
       1.000 -0.020 -0.009 -0.000 -0.000 -0.005  0.000 -0.005 -0.000  0.000
       0.000 -0.000 -0.000  0.000  0.000 -0.000 -0.000  0.000  0.000 -0.000
       0.005  0.443 -0.399 -0.599  0.534  0.000 -0.003  0.000 -0.003  0.004
       0.006  0.548 -0.587  0.408 -0.434 -0.000 -0.003 -0.000  0.002  0.001
       0.000 -0.000 -0.000 -0.000 -0.000 -0.000 -0.000 -0.000  0.000 -0.000
       0.000  0.000  0.000 -0.000 -0.000 -0.000  0.000  0.000  0.000 -0.000
       0.005 -0.003 -0.000 -0.000  0.002  0.533 -0.515  0.463  0.486  0.024
       0.000  0.000 -0.000 -0.000 -0.000 -0.000 -0.000 -0.000  0.000  0.000
      -0.000 -0.000  0.000  0.000  0.000  0.000  0.000 -0.000  0.000  0.000
       0.000  0.002 -0.000 -0.000  0.003 -0.462  0.487  0.533  0.514  0.025
     occupations, | n_(i1, i2)^(sigma1, sigma2) |:
       0.021  0.000  0.000  0.000  0.000  0.000  0.005  0.005  0.000  0.000
       0.000  0.084  0.004  0.002  0.045  0.004  0.000  0.000  0.002  0.002
       0.000  0.004  0.084  0.045  0.002  0.004  0.000  0.000  0.002  0.002
       0.000  0.002  0.045  0.056  0.004  0.001  0.002  0.002  0.000  0.000
       0.000  0.045  0.002  0.004  0.056  0.001  0.002  0.002  0.000  0.000
       0.000  0.004  0.004  0.001  0.001  0.999  0.000  0.000  0.000  0.000
       0.005  0.000  0.000  0.002  0.002  0.000  0.996  0.000  0.000  0.002
       0.005  0.000  0.000  0.002  0.002  0.000  0.000  0.996  0.002  0.000
       0.000  0.002  0.002  0.000  0.000  0.000  0.000  0.002  0.997  0.000
       0.000  0.002  0.002  0.000  0.000  0.000  0.002  0.000  0.000  0.997
     Atomic magnetic moment mx, my, mz =    -0.000000    0.000034   -4.683650

     Number of occupied Hubbard levels =   10.5700
 --- in v_hubbard ---
Hub. E (dc, noflip, flip, total)    6.4194   6.4803  -0.0000   0.0609
 -------

 ==============================================================================
     atom number    1 relative position :    0.0000   0.0000   0.0000
     charge :    13.681681  (integrated on a sphere of radius 0.045)
     magnetization :          0.000000   -0.000011    4.577075
     magnetization/charge:    0.000000   -0.000001    0.334540
     polar coord.: r, theta, phi [deg] :     4.577075    0.000134  -90.000000

 ==============================================================================

 ==============================================================================
     atom number    2 relative position :    0.0000  -0.0000   1.4937
     charge :    13.681700  (integrated on a sphere of radius 0.045)
     magnetization :          0.000000    0.000027   -4.577000
     magnetization/charge:    0.000000    0.000002   -0.334534
     polar coord.: r, theta, phi [deg] :     4.577000  179.999658   90.000000

 ==============================================================================

 ==============================================================================
     atom number    3 relative position :    0.0000  -0.0000   0.6347
     charge :    12.530295  (integrated on a sphere of radius 0.046)
     magnetization :          0.000000   -0.000013   -0.006580
     magnetization/charge:    0.000000   -0.000001   -0.000525
     polar coord.: r, theta, phi [deg] :     0.006580  179.885885  -90.000000

 ==============================================================================

 ==============================================================================
     atom number    4 relative position :    0.0000  -0.0000   2.1284
     charge :    12.530387  (integrated on a sphere of radius 0.046)
     magnetization :          0.000000   -0.000036    0.006599
     magnetization/charge:    0.000000   -0.000003    0.000527
     polar coord.: r, theta, phi [deg] :     0.006599    0.312509  -90.000000

 ==============================================================================

 ==============================================================================
     atom number    5 relative position :    0.0000  -0.0000   0.8590
     charge :    12.530387  (integrated on a sphere of radius 0.046)
     magnetization :          0.000000   -0.000036    0.006599
     magnetization/charge:    0.000000   -0.000003    0.000527
     polar coord.: r, theta, phi [deg] :     0.006599    0.312509  -90.000000

 ==============================================================================

 ==============================================================================
     atom number    6 relative position :    0.0000  -0.0000   2.3528
     charge :    12.530295  (integrated on a sphere of radius 0.046)
     magnetization :         -0.000000   -0.000013   -0.006580
     magnetization/charge:   -0.000000   -0.000001   -0.000525
     polar coord.: r, theta, phi [deg] :     0.006580  179.885885  -90.000000

 ==============================================================================

 ==============================================================================
     atom number    7 relative position :    0.0000  -0.0000   0.1992
     charge :     3.849343  (integrated on a sphere of radius 0.045)
     magnetization :          0.000000    0.000010    0.008001
     magnetization/charge:    0.000000    0.000003    0.002078
     polar coord.: r, theta, phi [deg] :     0.008001    0.071468   90.000000

 ==============================================================================

 ==============================================================================
     atom number    8 relative position :    0.0000  -0.0000   1.6929
     charge :     3.849298  (integrated on a sphere of radius 0.045)
     magnetization :          0.000000    0.000019   -0.007975
     magnetization/charge:    0.000000    0.000005   -0.002072
     polar coord.: r, theta, phi [deg] :     0.007975  179.865277   90.000000

 ==============================================================================

 ==============================================================================
     atom number    9 relative position :    0.0000  -0.0000   1.2945
     charge :     3.849298  (integrated on a sphere of radius 0.045)
     magnetization :          0.000000    0.000019   -0.007975
     magnetization/charge:    0.000000    0.000005   -0.002072
     polar coord.: r, theta, phi [deg] :     0.007975  179.865277   90.000000

 ==============================================================================

 ==============================================================================
     atom number   10 relative position :    0.0000  -0.0000   2.7883
     charge :     3.849343  (integrated on a sphere of radius 0.045)
     magnetization :          0.000000    0.000010    0.008001
     magnetization/charge:    0.000000    0.000003    0.002078
     polar coord.: r, theta, phi [deg] :     0.008001    0.071468   90.000000

 ==============================================================================

 ==============================================================================
     atom number   11 relative position :    0.0000  -0.0000   0.4392
     charge :     3.969799  (integrated on a sphere of radius 0.045)
     magnetization :          0.000000   -0.000005   -0.021216
     magnetization/charge:    0.000000   -0.000001   -0.005344
     polar coord.: r, theta, phi [deg] :     0.021216  179.987410  -90.000000

 ==============================================================================

 ==============================================================================
     atom number   12 relative position :    0.0000  -0.0000   1.9330
     charge :     3.969820  (integrated on a sphere of radius 0.045)
     magnetization :          0.000000   -0.000031    0.021192
     magnetization/charge:    0.000000   -0.000008    0.005338
     polar coord.: r, theta, phi [deg] :     0.021192    0.085113  -90.000000

 ==============================================================================

 ==============================================================================
     atom number   13 relative position :    0.0000  -0.0000   1.0545
     charge :     3.969820  (integrated on a sphere of radius 0.045)
     magnetization :          0.000000   -0.000031    0.021192
     magnetization/charge:    0.000000   -0.000008    0.005338
     polar coord.: r, theta, phi [deg] :     0.021192    0.085113  -90.000000

 ==============================================================================

 ==============================================================================
     atom number   14 relative position :    0.0000  -0.0000   2.5482
     charge :     3.969799  (integrated on a sphere of radius 0.045)
     magnetization :          0.000000   -0.000005   -0.021216
     magnetization/charge:    0.000000   -0.000001   -0.005344
     polar coord.: r, theta, phi [deg] :     0.021216  179.987410  -90.000000

 ==============================================================================

     total cpu time spent up to now is      746.1 secs

     total energy              =   -7140.30697036 Ry
     estimated scf accuracy    <       0.53824860 Ry

     total magnetization       =    -0.00    -0.00     0.00 Bohr mag/cell
     absolute magnetization    =     9.98 Bohr mag/cell

     iteration #  2     ecut=    60.00 Ry     beta= 0.70
     Davidson diagonalization with overlap

---- Real-time Memory Report at c_bands before calling an iterative solver
           360 MiB given to the printing process from OS
             0 MiB allocation reported by mallinfo(arena+hblkhd)
        142264 MiB available memory on the node where the printing process lives
------------------
     ethr =  3.90E-04,  avg # of iterations =  8.9

     ================= HUBBARD OCCUPATIONS ================
     ------------------------ ATOM    1 ------------------------
     Tr[ns(  1)] (up, down, total) =   4.85706  0.08382  4.94088
     eigenvalues:
       0.007  0.007  0.008  0.030  0.032  0.940  0.944  0.991  0.991  0.991
     eigenvectors (columns):
       0.000 -0.004 -0.000 -0.008 -0.000  0.000 -0.000 -1.000  0.016 -0.004
      -0.000 -0.000 -0.000 -0.000  0.000  0.000 -0.000 -0.000 -0.000 -0.000
       0.005  0.000  0.006  0.000  0.004  0.564 -0.556 -0.005 -0.426 -0.436
      -0.004 -0.000 -0.001 -0.000  0.005 -0.426  0.437 -0.007 -0.565 -0.556
       0.000  0.000  0.000 -0.000  0.000 -0.000  0.000 -0.000 -0.000 -0.000
       0.000  0.000  0.000 -0.000  0.000  0.000 -0.000 -0.000 -0.000 -0.000
       0.414 -0.407  0.000 -0.573 -0.579  0.000  0.004  0.007 -0.000 -0.005
      -0.000 -0.000  0.000  0.000 -0.000  0.000 -0.000 -0.000  0.000 -0.000
      -0.000 -0.000  0.000 -0.000  0.000 -0.000  0.000  0.000 -0.000  0.000
       0.582 -0.569  0.001  0.409  0.412  0.000  0.005 -0.001  0.000  0.004
     occupations, | n_(i1, i2)^(sigma1, sigma2) |:
       0.991  0.000  0.000  0.000  0.000  0.000  0.006  0.006  0.001  0.001
       0.000  0.960  0.002  0.001  0.024  0.006  0.000  0.000  0.004  0.004
       0.000  0.002  0.960  0.024  0.001  0.006  0.000  0.000  0.004  0.004
       0.000  0.001  0.024  0.973  0.000  0.001  0.004  0.004  0.000  0.000
       0.000  0.024  0.001  0.000  0.973  0.001  0.004  0.004  0.000  0.000
       0.000  0.006  0.006  0.001  0.001  0.008  0.000  0.000  0.000  0.000
       0.006  0.000  0.000  0.004  0.004  0.000  0.023  0.001  0.001  0.011
       0.006  0.000  0.000  0.004  0.004  0.000  0.001  0.023  0.011  0.001
       0.001  0.004  0.004  0.000  0.000  0.000  0.001  0.011  0.015  0.000
       0.001  0.004  0.004  0.000  0.000  0.000  0.011  0.001  0.000  0.015
     Atomic magnetic moment mx, my, mz =     0.000000    0.000161    4.773240
     ------------------------ ATOM    2 ------------------------
     Tr[ns(  2)] (up, down, total) =   0.08408  4.85747  4.94155
     eigenvalues:
       0.007  0.007  0.008  0.030  0.032  0.941  0.944  0.991  0.991  0.991
     eigenvectors (columns):
       0.016  0.015  1.000  0.001  0.001  0.008  0.000  0.000 -0.004  0.000
       0.000 -0.000  0.000  0.000  0.000  0.000 -0.000 -0.000 -0.000 -0.000
       0.408  0.413 -0.013 -0.574  0.577 -0.000 -0.004 -0.007 -0.000 -0.005
       0.573  0.578 -0.018  0.410 -0.411  0.000 -0.005  0.001  0.000  0.004
       0.000 -0.000  0.000 -0.000 -0.000  0.000 -0.000  0.000 -0.000  0.000
       0.000  0.000 -0.000 -0.000 -0.000  0.000  0.000 -0.000 -0.000 -0.000
      -0.005  0.000  0.006  0.000  0.004 -0.563 -0.558 -0.001  0.430  0.432
      -0.000 -0.000  0.000  0.000 -0.000  0.000 -0.000 -0.000 -0.000  0.000
       0.000  0.000 -0.000  0.000 -0.000 -0.000  0.000 -0.000 -0.000  0.000
       0.003  0.000 -0.001 -0.000  0.005  0.425  0.437 -0.001  0.569  0.552
     occupations, | n_(i1, i2)^(sigma1, sigma2) |:
       0.008  0.000  0.000  0.000  0.000  0.000  0.006  0.006  0.001  0.001
       0.000  0.023  0.001  0.001  0.011  0.006  0.000  0.000  0.004  0.004
       0.000  0.001  0.023  0.011  0.001  0.006  0.000  0.000  0.004  0.004
       0.000  0.001  0.011  0.015  0.000  0.001  0.004  0.004  0.000  0.000
       0.000  0.011  0.001  0.000  0.015  0.001  0.004  0.004  0.000  0.000
       0.000  0.006  0.006  0.001  0.001  0.991  0.000  0.000  0.000  0.000
       0.006  0.000  0.000  0.004  0.004  0.000  0.960  0.002  0.001  0.023
       0.006  0.000  0.000  0.004  0.004  0.000  0.002  0.960  0.023  0.001
       0.001  0.004  0.004  0.000  0.000  0.000  0.001  0.023  0.973  0.000
       0.001  0.004  0.004  0.000  0.000  0.000  0.023  0.001  0.000  0.973
     Atomic magnetic moment mx, my, mz =    -0.000000   -0.000012   -4.773395

     Number of occupied Hubbard levels =    9.8824
 --- in v_hubbard ---
Hub. E (dc, noflip, flip, total)    6.3521   6.4136  -0.0000   0.0614
 -------

 ==============================================================================
     atom number    1 relative position :    0.0000   0.0000   0.0000
     charge :    13.618083  (integrated on a sphere of radius 0.045)
     magnetization :          0.000000   -0.000001    4.574590
     magnetization/charge:    0.000000   -0.000000    0.335920
     polar coord.: r, theta, phi [deg] :     4.574590    0.000009  -90.000000

 ==============================================================================

 ==============================================================================
     atom number    2 relative position :    0.0000  -0.0000   1.4937
     charge :    13.618215  (integrated on a sphere of radius 0.045)
     magnetization :          0.000000    0.000024   -4.574556
     magnetization/charge:    0.000000    0.000002   -0.335915
     polar coord.: r, theta, phi [deg] :     4.574556  179.999702   90.000000

 ==============================================================================

 ==============================================================================
     atom number    3 relative position :    0.0000  -0.0000   0.6347
     charge :    12.590332  (integrated on a sphere of radius 0.046)
     magnetization :         -0.000000   -0.000008   -0.009417
     magnetization/charge:   -0.000000   -0.000001   -0.000748
     polar coord.: r, theta, phi [deg] :     0.009417  179.950543  -90.000000

 ==============================================================================

 ==============================================================================
     atom number    4 relative position :    0.0000  -0.0000   2.1284
     charge :    12.590404  (integrated on a sphere of radius 0.046)
     magnetization :          0.000000   -0.000037    0.009460
     magnetization/charge:    0.000000   -0.000003    0.000751
     polar coord.: r, theta, phi [deg] :     0.009460    0.225231  -90.000000

 ==============================================================================

 ==============================================================================
     atom number    5 relative position :    0.0000  -0.0000   0.8590
     charge :    12.590404  (integrated on a sphere of radius 0.046)
     magnetization :         -0.000000   -0.000037    0.009460
     magnetization/charge:   -0.000000   -0.000003    0.000751
     polar coord.: r, theta, phi [deg] :     0.009460    0.225231  -90.000000

 ==============================================================================

 ==============================================================================
     atom number    6 relative position :    0.0000  -0.0000   2.3528
     charge :    12.590332  (integrated on a sphere of radius 0.046)
     magnetization :          0.000000   -0.000008   -0.009417
     magnetization/charge:    0.000000   -0.000001   -0.000748
     polar coord.: r, theta, phi [deg] :     0.009417  179.950543  -90.000000

 ==============================================================================

 ==============================================================================
     atom number    7 relative position :    0.0000  -0.0000   0.1992
     charge :     3.884551  (integrated on a sphere of radius 0.045)
     magnetization :          0.000000    0.000000    0.008954
     magnetization/charge:    0.000000    0.000000    0.002305
     polar coord.: r, theta, phi [deg] :     0.008954    0.001081   90.000000

 ==============================================================================

 ==============================================================================
     atom number    8 relative position :    0.0000  -0.0000   1.6929
     charge :     3.884448  (integrated on a sphere of radius 0.045)
     magnetization :          0.000000    0.000013   -0.008937
     magnetization/charge:    0.000000    0.000003   -0.002301
     polar coord.: r, theta, phi [deg] :     0.008937  179.915251   90.000000

 ==============================================================================

 ==============================================================================
     atom number    9 relative position :    0.0000  -0.0000   1.2945
     charge :     3.884448  (integrated on a sphere of radius 0.045)
     magnetization :          0.000000    0.000013   -0.008937
     magnetization/charge:    0.000000    0.000003   -0.002301
     polar coord.: r, theta, phi [deg] :     0.008937  179.915251   90.000000

 ==============================================================================

 ==============================================================================
     atom number   10 relative position :    0.0000  -0.0000   2.7883
     charge :     3.884551  (integrated on a sphere of radius 0.045)
     magnetization :         -0.000000    0.000000    0.008954
     magnetization/charge:   -0.000000    0.000000    0.002305
     polar coord.: r, theta, phi [deg] :     0.008954    0.001081   90.000000

 ==============================================================================

 ==============================================================================
     atom number   11 relative position :    0.0000  -0.0000   0.4392
     charge :     3.885945  (integrated on a sphere of radius 0.045)
     magnetization :          0.000000   -0.000008   -0.013883
     magnetization/charge:    0.000000   -0.000002   -0.003573
     polar coord.: r, theta, phi [deg] :     0.013883  179.965787  -90.000000

 ==============================================================================

 ==============================================================================
     atom number   12 relative position :    0.0000  -0.0000   1.9330
     charge :     3.885728  (integrated on a sphere of radius 0.045)
     magnetization :          0.000000   -0.000048    0.013881
     magnetization/charge:    0.000000   -0.000012    0.003572
     polar coord.: r, theta, phi [deg] :     0.013881    0.198557  -90.000000

 ==============================================================================

 ==============================================================================
     atom number   13 relative position :    0.0000  -0.0000   1.0545
     charge :     3.885728  (integrated on a sphere of radius 0.045)
     magnetization :         -0.000000   -0.000048    0.013881
     magnetization/charge:   -0.000000   -0.000012    0.003572
     polar coord.: r, theta, phi [deg] :     0.013881    0.198557  -90.000000

 ==============================================================================

 ==============================================================================
     atom number   14 relative position :    0.0000  -0.0000   2.5482
     charge :     3.885945  (integrated on a sphere of radius 0.045)
     magnetization :          0.000000   -0.000008   -0.013883
     magnetization/charge:    0.000000   -0.000002   -0.003573
     polar coord.: r, theta, phi [deg] :     0.013883  179.965787  -90.000000

 ==============================================================================

     total cpu time spent up to now is     1056.9 secs

     total energy              =   -7139.15470315 Ry
     estimated scf accuracy    <      13.27017856 Ry

     total magnetization       =    -0.00    -0.00     0.00 Bohr mag/cell
     absolute magnetization    =    10.35 Bohr mag/cell

     iteration #  3     ecut=    60.00 Ry     beta= 0.70
     Davidson diagonalization with overlap

---- Real-time Memory Report at c_bands before calling an iterative solver
           360 MiB given to the printing process from OS
             0 MiB allocation reported by mallinfo(arena+hblkhd)
        142220 MiB available memory on the node where the printing process lives
------------------
     c_bands:  3 eigenvalues not converged
     ethr =  3.90E-04,  avg # of iterations = 11.4

     ================= HUBBARD OCCUPATIONS ================
     ------------------------ ATOM    1 ------------------------
     Tr[ns(  1)] (up, down, total) =   4.98250  0.29385  5.27635
     eigenvalues:
       0.018  0.019  0.019  0.118  0.119  0.994  0.994  0.998  0.998  0.998
     eigenvectors (columns):
       0.000  0.000  0.005  0.006 -0.003  0.001  0.002 -0.011 -0.935 -0.355
       0.000 -0.000  0.000  0.000 -0.000  0.000  0.000  0.000 -0.000  0.000
       0.004  0.006 -0.000 -0.001 -0.003 -0.553  0.465  0.479 -0.182  0.464
      -0.003  0.000  0.000 -0.002 -0.003  0.513 -0.463  0.519 -0.184  0.468
      -0.000 -0.000  0.000  0.000 -0.000 -0.000 -0.000  0.000 -0.000  0.000
      -0.000  0.000 -0.000  0.000 -0.000  0.000  0.000  0.000  0.000  0.000
       0.439  0.006  0.392  0.772  0.239  0.000 -0.003  0.000  0.004  0.005
       0.000 -0.000 -0.000 -0.000  0.000  0.000  0.000  0.000  0.000  0.000
       0.000 -0.000 -0.000  0.000 -0.000 -0.000 -0.000 -0.000  0.000  0.000
       0.562  0.011  0.581 -0.548 -0.215  0.000 -0.004  0.000  0.001 -0.003
     occupations, | n_(i1, i2)^(sigma1, sigma2) |:
       0.998  0.000  0.000  0.000  0.000  0.000  0.005  0.005  0.001  0.001
       0.000  0.996  0.000  0.000  0.002  0.006  0.000  0.000  0.003  0.003
       0.000  0.000  0.996  0.002  0.000  0.006  0.000  0.000  0.003  0.003
       0.000  0.000  0.002  0.996  0.000  0.000  0.003  0.003  0.000  0.000
       0.000  0.002  0.000  0.000  0.996  0.000  0.003  0.003  0.000  0.000
       0.000  0.006  0.006  0.000  0.000  0.019  0.000  0.000  0.000  0.000
       0.005  0.000  0.000  0.003  0.003  0.000  0.084  0.003  0.001  0.047
       0.005  0.000  0.000  0.003  0.003  0.000  0.003  0.084  0.048  0.001
       0.001  0.003  0.003  0.000  0.000  0.000  0.001  0.048  0.053  0.003
       0.001  0.003  0.003  0.000  0.000  0.000  0.047  0.001  0.003  0.053
     Atomic magnetic moment mx, my, mz =     0.000000    0.000094    4.688655
     ------------------------ ATOM    2 ------------------------
     Tr[ns(  2)] (up, down, total) =   0.29358  4.98245  5.27603
     eigenvalues:
       0.018  0.019  0.019  0.118  0.119  0.994  0.994  0.998  0.998  0.998
     eigenvectors (columns):
       0.087 -0.996  0.018 -0.001  0.000 -0.006 -0.000  0.006  0.000  0.000
      -0.000 -0.000  0.000  0.000 -0.000 -0.000  0.000 -0.000 -0.000  0.000
       0.433  0.031 -0.397 -0.611 -0.530 -0.000  0.003  0.000  0.007  0.001
       0.553  0.037 -0.590  0.415  0.417 -0.000  0.004  0.000 -0.001 -0.003
      -0.000 -0.000  0.000 -0.000  0.000 -0.000  0.000  0.000  0.000 -0.000
       0.000  0.000 -0.000 -0.000  0.000 -0.000 -0.000 -0.000 -0.000  0.000
      -0.003 -0.006  0.000 -0.000 -0.003  0.497  0.523 -0.478 -0.161 -0.474
       0.000 -0.000 -0.000  0.000 -0.000 -0.000  0.000  0.000  0.000 -0.000
       0.000 -0.000  0.000  0.000 -0.000  0.000 -0.000  0.000  0.000 -0.000
       0.003  0.000  0.000 -0.000 -0.004 -0.459 -0.519 -0.517 -0.163 -0.477
     occupations, | n_(i1, i2)^(sigma1, sigma2) |:
       0.019  0.000  0.000  0.000  0.000  0.000  0.006  0.006  0.000  0.000
       0.000  0.084  0.003  0.001  0.047  0.005  0.000  0.000  0.003  0.003
       0.000  0.003  0.084  0.047  0.001  0.005  0.000  0.000  0.003  0.003
       0.000  0.001  0.047  0.053  0.003  0.001  0.003  0.003  0.000  0.000
       0.000  0.047  0.001  0.003  0.053  0.001  0.003  0.003  0.000  0.000
       0.000  0.005  0.005  0.001  0.001  0.998  0.000  0.000  0.000  0.000
       0.006  0.000  0.000  0.003  0.003  0.000  0.996  0.000  0.000  0.002
       0.006  0.000  0.000  0.003  0.003  0.000  0.000  0.996  0.002  0.000
       0.000  0.003  0.003  0.000  0.000  0.000  0.000  0.002  0.996  0.000
       0.000  0.003  0.003  0.000  0.000  0.000  0.002  0.000  0.000  0.996
     Atomic magnetic moment mx, my, mz =    -0.000000   -0.000115   -4.688865

     Number of occupied Hubbard levels =   10.5524
 --- in v_hubbard ---
Hub. E (dc, noflip, flip, total)    6.3612   6.4264  -0.0001   0.0651
 -------

 ==============================================================================
     atom number    1 relative position :    0.0000   0.0000   0.0000
     charge :    13.596200  (integrated on a sphere of radius 0.045)
     magnetization :         -0.000000    0.000039    4.580253
     magnetization/charge:   -0.000000    0.000003    0.336877
     polar coord.: r, theta, phi [deg] :     4.580253    0.000493   90.000000

 ==============================================================================

 ==============================================================================
     atom number    2 relative position :    0.0000  -0.0000   1.4937
     charge :    13.596110  (integrated on a sphere of radius 0.045)
     magnetization :          0.000000    0.000045   -4.580133
     magnetization/charge:    0.000000    0.000003   -0.336871
     polar coord.: r, theta, phi [deg] :     4.580133  179.999442   90.000000

 ==============================================================================

 ==============================================================================
     atom number    3 relative position :    0.0000  -0.0000   0.6347
     charge :    12.673420  (integrated on a sphere of radius 0.046)
     magnetization :         -0.000000    0.000007   -0.009709
     magnetization/charge:   -0.000000    0.000001   -0.000766
     polar coord.: r, theta, phi [deg] :     0.009709  179.960290   90.000000

 ==============================================================================

 ==============================================================================
     atom number    4 relative position :    0.0000  -0.0000   2.1284
     charge :    12.673771  (integrated on a sphere of radius 0.046)
     magnetization :         -0.000000   -0.000044    0.009734
     magnetization/charge:   -0.000000   -0.000003    0.000768
     polar coord.: r, theta, phi [deg] :     0.009734    0.260572  -90.000000

 ==============================================================================

 ==============================================================================
     atom number    5 relative position :    0.0000  -0.0000   0.8590
     charge :    12.673771  (integrated on a sphere of radius 0.046)
     magnetization :         -0.000000   -0.000044    0.009734
     magnetization/charge:   -0.000000   -0.000003    0.000768
     polar coord.: r, theta, phi [deg] :     0.009734    0.260572  -90.000000

 ==============================================================================

 ==============================================================================
     atom number    6 relative position :    0.0000  -0.0000   2.3528
     charge :    12.673420  (integrated on a sphere of radius 0.046)
     magnetization :          0.000000    0.000007   -0.009709
     magnetization/charge:    0.000000    0.000001   -0.000766
     polar coord.: r, theta, phi [deg] :     0.009709  179.960290   90.000000

 ==============================================================================

 ==============================================================================
     atom number    7 relative position :    0.0000  -0.0000   0.1992
     charge :     3.800706  (integrated on a sphere of radius 0.045)
     magnetization :         -0.000000   -0.000004    0.011670
     magnetization/charge:   -0.000000   -0.000001    0.003070
     polar coord.: r, theta, phi [deg] :     0.011670    0.017537  -90.000000

 ==============================================================================

 ==============================================================================
     atom number    8 relative position :    0.0000  -0.0000   1.6929
     charge :     3.800917  (integrated on a sphere of radius 0.045)
     magnetization :          0.000000   -0.000005   -0.011668
     magnetization/charge:    0.000000   -0.000001   -0.003070
     polar coord.: r, theta, phi [deg] :     0.011668  179.975809  -90.000000

 ==============================================================================

 ==============================================================================
     atom number    9 relative position :    0.0000  -0.0000   1.2945
     charge :     3.800917  (integrated on a sphere of radius 0.045)
     magnetization :         -0.000000   -0.000005   -0.011668
     magnetization/charge:   -0.000000   -0.000001   -0.003070
     polar coord.: r, theta, phi [deg] :     0.011668  179.975809  -90.000000

 ==============================================================================

 ==============================================================================
     atom number   10 relative position :    0.0000  -0.0000   2.7883
     charge :     3.800706  (integrated on a sphere of radius 0.045)
     magnetization :         -0.000000   -0.000004    0.011670
     magnetization/charge:   -0.000000   -0.000001    0.003070
     polar coord.: r, theta, phi [deg] :     0.011670    0.017537  -90.000000

 ==============================================================================

 ==============================================================================
     atom number   11 relative position :    0.0000  -0.0000   0.4392
     charge :     3.872616  (integrated on a sphere of radius 0.045)
     magnetization :          0.000000    0.000006   -0.009109
     magnetization/charge:    0.000000    0.000002   -0.002352
     polar coord.: r, theta, phi [deg] :     0.009109  179.963106   90.000000

 ==============================================================================

 ==============================================================================
     atom number   12 relative position :    0.0000  -0.0000   1.9330
     charge :     3.872552  (integrated on a sphere of radius 0.045)
     magnetization :         -0.000000   -0.000041    0.009125
     magnetization/charge:   -0.000000   -0.000011    0.002356
     polar coord.: r, theta, phi [deg] :     0.009125    0.258121  -90.000000

 ==============================================================================

 ==============================================================================
     atom number   13 relative position :    0.0000  -0.0000   1.0545
     charge :     3.872552  (integrated on a sphere of radius 0.045)
     magnetization :          0.000000   -0.000041    0.009125
     magnetization/charge:    0.000000   -0.000011    0.002356
     polar coord.: r, theta, phi [deg] :     0.009125    0.258121  -90.000000

 ==============================================================================

 ==============================================================================
     atom number   14 relative position :    0.0000  -0.0000   2.5482
     charge :     3.872616  (integrated on a sphere of radius 0.045)
     magnetization :          0.000000    0.000006   -0.009109
     magnetization/charge:    0.000000    0.000002   -0.002352
     polar coord.: r, theta, phi [deg] :     0.009109  179.963106   90.000000

 ==============================================================================

     total cpu time spent up to now is     1356.3 secs

     total energy              =   -7140.31094531 Ry
     estimated scf accuracy    <       3.86066043 Ry

     total magnetization       =     0.00     0.00    -0.00 Bohr mag/cell
     absolute magnetization    =    10.05 Bohr mag/cell

     iteration #  4     ecut=    60.00 Ry     beta= 0.70
     Davidson diagonalization with overlap

---- Real-time Memory Report at c_bands before calling an iterative solver
           363 MiB given to the printing process from OS
             0 MiB allocation reported by mallinfo(arena+hblkhd)
        142155 MiB available memory on the node where the printing process lives
------------------
     ethr =  3.90E-04,  avg # of iterations =  5.1

     ================= HUBBARD OCCUPATIONS ================
     ------------------------ ATOM    1 ------------------------
     Tr[ns(  1)] (up, down, total) =   4.98035  0.30902  5.28937
     eigenvalues:
       0.019  0.019  0.020  0.125  0.125  0.993  0.993  0.998  0.998  0.998
     eigenvectors (columns):
       0.000  0.000  0.005 -0.007  0.000 -0.001  0.000  0.004 -0.999 -0.052
       0.000 -0.000  0.000 -0.000 -0.000 -0.000  0.000  0.000 -0.000  0.000
       0.006  0.004 -0.000 -0.000 -0.003  0.542  0.512 -0.461 -0.027  0.481
      -0.000 -0.003  0.000 -0.000 -0.004 -0.465 -0.477 -0.537 -0.029  0.517
       0.000  0.000 -0.000 -0.000 -0.000  0.000 -0.000  0.000 -0.000  0.000
      -0.000  0.000 -0.000  0.000  0.000 -0.000  0.000  0.000 -0.000  0.000
       0.024  0.441  0.392 -0.559  0.583  0.000 -0.004 -0.000  0.006  0.004
       0.000 -0.000  0.000  0.000  0.000  0.000  0.000  0.000  0.000  0.000
       0.000 -0.000  0.000 -0.000 -0.000  0.000 -0.000 -0.000  0.000  0.000
       0.031  0.561  0.580  0.374 -0.456 -0.000 -0.004  0.000  0.000 -0.003
     occupations, | n_(i1, i2)^(sigma1, sigma2) |:
       0.998  0.000  0.000  0.000  0.000  0.000  0.005  0.006  0.000  0.000
       0.000  0.995  0.000  0.000  0.003  0.006  0.000  0.000  0.003  0.003
       0.000  0.000  0.995  0.003  0.000  0.006  0.000  0.000  0.003  0.003
       0.000  0.000  0.003  0.996  0.000  0.000  0.003  0.003  0.000  0.000
       0.000  0.003  0.000  0.000  0.996  0.000  0.003  0.003  0.000  0.000
       0.000  0.006  0.006  0.000  0.000  0.019  0.000  0.000  0.000  0.000
       0.005  0.000  0.000  0.003  0.003  0.000  0.088  0.004  0.001  0.050
       0.006  0.000  0.000  0.003  0.003  0.000  0.004  0.089  0.050  0.001
       0.000  0.003  0.003  0.000  0.000  0.000  0.001  0.050  0.056  0.003
       0.000  0.003  0.003  0.000  0.000  0.000  0.050  0.001  0.003  0.057
     Atomic magnetic moment mx, my, mz =     0.000000    0.000010    4.671333
     ------------------------ ATOM    2 ------------------------
     Tr[ns(  2)] (up, down, total) =   0.30923  4.98044  5.28967
     eigenvalues:
       0.019  0.019  0.020  0.125  0.125  0.993  0.993  0.998  0.998  0.998
     eigenvectors (columns):
      -0.998  0.057 -0.010 -0.000 -0.001  0.006  0.000  0.006 -0.000  0.000
       0.000  0.000  0.000 -0.000 -0.000  0.000  0.000 -0.000  0.000  0.000
      -0.021 -0.438 -0.394 -0.274 -0.760  0.000  0.004  0.000  0.006  0.004
      -0.026 -0.557 -0.585  0.158  0.568  0.000  0.004  0.000  0.000 -0.003
       0.000  0.000  0.000  0.000  0.000  0.000  0.000  0.000  0.000 -0.000
      -0.000 -0.000 -0.000  0.000  0.000  0.000 -0.000 -0.000  0.000  0.000
      -0.006  0.004 -0.000  0.001 -0.003 -0.534  0.520 -0.459  0.025 -0.484
      -0.000  0.000  0.000 -0.000 -0.000  0.000  0.000  0.000  0.000 -0.000
      -0.000  0.000  0.000 -0.000 -0.000 -0.000 -0.000  0.000  0.000 -0.000
      -0.000 -0.003  0.000  0.002 -0.004  0.459 -0.484 -0.533  0.026 -0.519
     occupations, | n_(i1, i2)^(sigma1, sigma2) |:
       0.019  0.000  0.000  0.000  0.000  0.000  0.006  0.006  0.000  0.000
       0.000  0.089  0.004  0.001  0.050  0.006  0.000  0.000  0.003  0.003
       0.000  0.004  0.089  0.050  0.001  0.006  0.000  0.000  0.003  0.003
       0.000  0.001  0.050  0.056  0.003  0.000  0.003  0.003  0.000  0.000
       0.000  0.050  0.001  0.003  0.056  0.000  0.003  0.003  0.000  0.000
       0.000  0.006  0.006  0.000  0.000  0.998  0.000  0.000  0.000  0.000
       0.006  0.000  0.000  0.003  0.003  0.000  0.995  0.000  0.000  0.003
       0.006  0.000  0.000  0.003  0.003  0.000  0.000  0.995  0.003  0.000
       0.000  0.003  0.003  0.000  0.000  0.000  0.000  0.003  0.996  0.000
       0.000  0.003  0.003  0.000  0.000  0.000  0.003  0.000  0.000  0.996
     Atomic magnetic moment mx, my, mz =    -0.000000   -0.000021   -4.671211

     Number of occupied Hubbard levels =   10.5790
 --- in v_hubbard ---
Hub. E (dc, noflip, flip, total)    6.5007   6.5792  -0.0001   0.0784
 -------

 ==============================================================================
     atom number    1 relative position :    0.0000   0.0000   0.0000
     charge :    13.603951  (integrated on a sphere of radius 0.045)
     magnetization :         -0.000000    0.000103    4.593964
     magnetization/charge:   -0.000000    0.000008    0.337693
     polar coord.: r, theta, phi [deg] :     4.593964    0.001279   90.000000

 ==============================================================================

 ==============================================================================
     atom number    2 relative position :    0.0000  -0.0000   1.4937
     charge :    13.604413  (integrated on a sphere of radius 0.045)
     magnetization :          0.000000    0.000110   -4.593739
     magnetization/charge:    0.000000    0.000008   -0.337665
     polar coord.: r, theta, phi [deg] :     4.593739  179.998623   90.000000

 ==============================================================================

 ==============================================================================
     atom number    3 relative position :    0.0000  -0.0000   0.6347
     charge :    12.665863  (integrated on a sphere of radius 0.046)
     magnetization :          0.000000    0.000053   -0.011323
     magnetization/charge:    0.000000    0.000004   -0.000894
     polar coord.: r, theta, phi [deg] :     0.011324  179.730215   90.000000

 ==============================================================================

 ==============================================================================
     atom number    4 relative position :    0.0000  -0.0000   2.1284
     charge :    12.664853  (integrated on a sphere of radius 0.046)
     magnetization :         -0.000000   -0.000047    0.011529
     magnetization/charge:   -0.000000   -0.000004    0.000910
     polar coord.: r, theta, phi [deg] :     0.011529    0.234282  -90.000000

 ==============================================================================

 ==============================================================================
     atom number    5 relative position :    0.0000  -0.0000   0.8590
     charge :    12.664853  (integrated on a sphere of radius 0.046)
     magnetization :         -0.000000   -0.000047    0.011529
     magnetization/charge:   -0.000000   -0.000004    0.000910
     polar coord.: r, theta, phi [deg] :     0.011529    0.234282  -90.000000

 ==============================================================================

 ==============================================================================
     atom number    6 relative position :    0.0000  -0.0000   2.3528
     charge :    12.665863  (integrated on a sphere of radius 0.046)
     magnetization :          0.000000    0.000053   -0.011323
     magnetization/charge:    0.000000    0.000004   -0.000894
     polar coord.: r, theta, phi [deg] :     0.011324  179.730215   90.000000

 ==============================================================================

 ==============================================================================
     atom number    7 relative position :    0.0000  -0.0000   0.1992
     charge :     3.783562  (integrated on a sphere of radius 0.045)
     magnetization :          0.000000    0.000031    0.019292
     magnetization/charge:    0.000000    0.000008    0.005099
     polar coord.: r, theta, phi [deg] :     0.019292    0.092130   90.000000

 ==============================================================================

 ==============================================================================
     atom number    8 relative position :    0.0000  -0.0000   1.6929
     charge :     3.782278  (integrated on a sphere of radius 0.045)
     magnetization :         -0.000000   -0.000062   -0.019160
     magnetization/charge:   -0.000000   -0.000016   -0.005066
     polar coord.: r, theta, phi [deg] :     0.019160  179.813627  -90.000000

 ==============================================================================

 ==============================================================================
     atom number    9 relative position :    0.0000  -0.0000   1.2945
     charge :     3.782278  (integrated on a sphere of radius 0.045)
     magnetization :         -0.000000   -0.000062   -0.019160
     magnetization/charge:   -0.000000   -0.000016   -0.005066
     polar coord.: r, theta, phi [deg] :     0.019160  179.813627  -90.000000

 ==============================================================================

 ==============================================================================
     atom number   10 relative position :    0.0000  -0.0000   2.7883
     charge :     3.783562  (integrated on a sphere of radius 0.045)
     magnetization :          0.000000    0.000031    0.019292
     magnetization/charge:    0.000000    0.000008    0.005099
     polar coord.: r, theta, phi [deg] :     0.019292    0.092130   90.000000

 ==============================================================================

 ==============================================================================
     atom number   11 relative position :    0.0000  -0.0000   0.4392
     charge :     3.860298  (integrated on a sphere of radius 0.045)
     magnetization :          0.000000    0.000045   -0.001077
     magnetization/charge:    0.000000    0.000012   -0.000279
     polar coord.: r, theta, phi [deg] :     0.001078  177.596739   90.000000

 ==============================================================================

 ==============================================================================
     atom number   12 relative position :    0.0000  -0.0000   1.9330
     charge :     3.859093  (integrated on a sphere of radius 0.045)
     magnetization :          0.000000   -0.000052    0.000890
     magnetization/charge:    0.000000   -0.000013    0.000231
     polar coord.: r, theta, phi [deg] :     0.000891    3.316062  -90.000000

 ==============================================================================

 ==============================================================================
     atom number   13 relative position :    0.0000  -0.0000   1.0545
     charge :     3.859093  (integrated on a sphere of radius 0.045)
     magnetization :         -0.000000   -0.000052    0.000890
     magnetization/charge:   -0.000000   -0.000013    0.000231
     polar coord.: r, theta, phi [deg] :     0.000891    3.316062  -90.000000

 ==============================================================================

 ==============================================================================
     atom number   14 relative position :    0.0000  -0.0000   2.5482
     charge :     3.860298  (integrated on a sphere of radius 0.045)
     magnetization :          0.000000    0.000045   -0.001077
     magnetization/charge:    0.000000    0.000012   -0.000279
     polar coord.: r, theta, phi [deg] :     0.001078  177.596739   90.000000

 ==============================================================================

     total cpu time spent up to now is     2165.0 secs

     total energy              =   -7140.57905764 Ry
     estimated scf accuracy    <       0.20692833 Ry

     total magnetization       =    -0.00     0.00     0.00 Bohr mag/cell
     absolute magnetization    =    10.04 Bohr mag/cell

     iteration #  5     ecut=    60.00 Ry     beta= 0.70
     Davidson diagonalization with overlap

---- Real-time Memory Report at c_bands before calling an iterative solver
           363 MiB given to the printing process from OS
             0 MiB allocation reported by mallinfo(arena+hblkhd)
        141961 MiB available memory on the node where the printing process lives
------------------
     c_bands:  1 eigenvalues not converged
     ethr =  1.50E-04,  avg # of iterations =  5.4

     ================= HUBBARD OCCUPATIONS ================
     ------------------------ ATOM    1 ------------------------
     Tr[ns(  1)] (up, down, total) =   4.97835  0.30303  5.28138
     eigenvalues:
       0.019  0.019  0.020  0.122  0.123  0.991  0.992  0.998  0.998  0.998
     eigenvectors (columns):
       0.000  0.000  0.005 -0.007  0.000  0.000 -0.000  0.001 -1.000  0.003
      -0.000  0.000  0.000 -0.000 -0.000 -0.000  0.000  0.000 -0.000  0.000
       0.007  0.004 -0.000 -0.000 -0.003  0.537  0.522 -0.459  0.001  0.477
      -0.000 -0.003  0.000 -0.000 -0.004 -0.461 -0.476 -0.537  0.001  0.523
       0.000  0.000 -0.000 -0.000 -0.000  0.000 -0.000  0.000 -0.000  0.000
       0.000 -0.000 -0.000  0.000  0.000 -0.000  0.000  0.000  0.000  0.000
       0.012  0.442  0.391 -0.567  0.575  0.000 -0.004 -0.000  0.006  0.004
       0.000  0.000 -0.000  0.000  0.000 -0.000  0.000  0.000  0.000  0.000
       0.000  0.000 -0.000 -0.000 -0.000  0.000 -0.000 -0.000  0.000  0.000
       0.016  0.562  0.580  0.380 -0.451 -0.000 -0.004  0.000  0.000 -0.004
     occupations, | n_(i1, i2)^(sigma1, sigma2) |:
       0.998  0.000  0.000  0.000  0.000  0.000  0.006  0.006  0.001  0.001
       0.000  0.995  0.000  0.000  0.003  0.006  0.000  0.000  0.004  0.004
       0.000  0.000  0.995  0.003  0.000  0.006  0.000  0.000  0.004  0.004
       0.000  0.000  0.003  0.995  0.000  0.000  0.003  0.003  0.000  0.000
       0.000  0.003  0.000  0.000  0.995  0.000  0.003  0.003  0.000  0.000
       0.000  0.006  0.006  0.000  0.000  0.019  0.000  0.000  0.000  0.000
       0.006  0.000  0.000  0.003  0.003  0.000  0.087  0.004  0.002  0.049
       0.006  0.000  0.000  0.003  0.003  0.000  0.004  0.087  0.049  0.002
       0.001  0.004  0.004  0.000  0.000  0.000  0.002  0.049  0.055  0.004
[...]
     5.3978   5.4022   5.7237   5.7288   5.7731   5.7767   6.1406   6.1447
     6.1629   6.1680   6.4914   6.4964   6.7660   6.7706   6.9612   6.9684
     7.2527   7.2609

     occupation numbers 
     1.0000   1.0000   1.0000   1.0000   1.0000   1.0000   1.0000   1.0000
     1.0000   1.0000   1.0000   1.0000   1.0000   1.0000   1.0000   1.0000
     1.0000   1.0000   1.0000   1.0000   1.0000   1.0000   1.0000   1.0000
     1.0000   1.0000   1.0000   1.0000   1.0000   1.0000   1.0000   1.0000
     1.0000   1.0000   1.0000   1.0000   1.0000   1.0000   1.0000   1.0000
     1.0000   1.0000   1.0000   1.0000   1.0000   1.0000   1.0000   1.0000
     1.0000   1.0000   1.0000   1.0000   1.0000   1.0000   1.0000   1.0000
     1.0000   1.0000   1.0000   1.0000   1.0000   1.0000   1.0000   1.0000
     1.0000   1.0000   1.0000   1.0000   1.0000   1.0000   1.0000   1.0000
     1.0000   1.0000   1.0000   1.0000   1.0000   1.0000   1.0000   1.0000
     1.0000   1.0000   1.0000   1.0000   1.0000   1.0000   1.0000   1.0000
     1.0000   1.0000   1.0000   1.0000   1.0000   1.0000   1.0000   1.0000
     1.0000   1.0000   1.0000   1.0000   1.0000   1.0000   1.0000   1.0000
     1.0000   1.0000   1.0000   1.0000   1.0000   1.0000   1.0000   1.0000
     1.0000   1.0000   1.0000   1.0000   1.0000   1.0000   1.0000   1.0000
     1.0000   1.0000   1.0000   1.0000   1.0000   1.0000   1.0000   1.0000
     1.0000   1.0000   1.0000   1.0000   1.0000   1.0000   1.0000   1.0000
     1.0000   1.0000

          k = 0.0000-3.6502 0.0837 ( 23506 PWs)   bands (ev):

   -74.8148 -74.8067 -69.9188 -69.9103 -44.0462 -44.0385 -43.6377 -43.6292
   -43.1330 -43.1253 -39.0884 -39.0804 -38.6809 -38.6718 -38.3334 -38.3255
   -16.9585 -16.9584 -16.9554 -16.9553 -16.9524 -16.9523 -16.9520 -16.9519
   -16.9463 -16.9463 -16.9432 -16.9432 -16.9403 -16.9403 -16.9397 -16.9397
   -13.9849 -13.9849 -13.9832 -13.9831 -13.9728 -13.9728 -13.9727 -13.9727
   -13.9709 -13.9709 -13.9708 -13.9707 -13.9607 -13.9607 -13.9586 -13.9585
   -13.9583 -13.9583 -13.9570 -13.9569 -13.9461 -13.9461 -13.9448 -13.9448
    -3.8398  -3.8355  -3.8332  -3.8293  -3.7916  -3.7871  -3.7836  -3.7779
    -3.1991  -3.1975  -3.1639  -3.1580  -3.0970  -3.0948  -3.0148  -3.0096
    -2.3847  -2.3814  -2.3560  -2.3529  -2.1871  -2.1854  -2.1667  -2.1651
     1.7967   1.8044   1.9552   1.9635   2.0047   2.0129   2.2415   2.2494
     2.3291   2.3370   2.5617   2.5642   2.7051   2.7092   2.9504   2.9513
     3.1110   3.1167   3.6205   3.6250   3.7298   3.7333   3.8868   3.8884
     4.1900   4.1914   4.4547   4.4566   4.6253   4.6318   4.6802   4.6827
     4.7155   4.7178   4.8576   4.8593   5.0642   5.0661   5.2453   5.2464
     5.5049   5.5052   5.8290   5.8302   5.9487   5.9527   6.0592   6.0629
     6.2918   6.2958   6.4013   6.4025   6.7264   6.7288   6.9949   7.0004
     7.1675   7.1755

     occupation numbers 
     1.0000   1.0000   1.0000   1.0000   1.0000   1.0000   1.0000   1.0000
     1.0000   1.0000   1.0000   1.0000   1.0000   1.0000   1.0000   1.0000
     1.0000   1.0000   1.0000   1.0000   1.0000   1.0000   1.0000   1.0000
     1.0000   1.0000   1.0000   1.0000   1.0000   1.0000   1.0000   1.0000
     1.0000   1.0000   1.0000   1.0000   1.0000   1.0000   1.0000   1.0000
     1.0000   1.0000   1.0000   1.0000   1.0000   1.0000   1.0000   1.0000
     1.0000   1.0000   1.0000   1.0000   1.0000   1.0000   1.0000   1.0000
     1.0000   1.0000   1.0000   1.0000   1.0000   1.0000   1.0000   1.0000
     1.0000   1.0000   1.0000   1.0000   1.0000   1.0000   1.0000   1.0000
     1.0000   1.0000   1.0000   1.0000   1.0000   1.0000   1.0000   1.0000
     1.0000   1.0000   1.0000   1.0000   1.0000   1.0000   1.0000   1.0000
     1.0000   1.0000   1.0000   1.0000   1.0000   1.0000   1.0000   1.0000
     1.0000   1.0000   1.0000   1.0000   1.0000   1.0000   1.0000   1.0000
     1.0000   1.0000   1.0000   1.0000   1.0000   1.0000   1.0000   1.0000
     1.0000   1.0000   1.0000   1.0000   1.0000   1.0000   1.0000   1.0000
     1.0000   1.0000   1.0000   1.0000   1.0000   1.0000   1.0000   1.0000
     1.0000   1.0000   1.0000   1.0000   1.0000   1.0000   1.0000   1.0000
     1.0000   1.0000

          k = 4.7417-0.9125-0.1674 ( 23556 PWs)   bands (ev):

   -74.8148 -74.8067 -69.9188 -69.9104 -44.0462 -44.0385 -43.6377 -43.6292
   -43.1330 -43.1254 -39.0884 -39.0804 -38.6809 -38.6718 -38.3335 -38.3255
   -16.9591 -16.9580 -16.9552 -16.9544 -16.9530 -16.9529 -16.9522 -16.9521
   -16.9469 -16.9458 -16.9431 -16.9421 -16.9411 -16.9407 -16.9400 -16.9398
   -13.9836 -13.9827 -13.9808 -13.9791 -13.9753 -13.9734 -13.9723 -13.9716
   -13.9713 -13.9706 -13.9686 -13.9669 -13.9631 -13.9613 -13.9602 -13.9598
   -13.9596 -13.9596 -13.9583 -13.9582 -13.9474 -13.9473 -13.9462 -13.9461
    -3.9960  -3.9928  -3.9914  -3.9909  -3.8424  -3.8416  -3.8375  -3.8347
    -3.0121  -3.0033  -2.9836  -2.9787  -2.8623  -2.8549  -2.7913  -2.7845
    -2.3919  -2.3891  -2.3872  -2.3829  -2.3130  -2.3112  -2.2964  -2.2903
     1.9436   1.9473   1.9516   1.9551   2.0802   2.0882   2.1605   2.1694
     2.2155   2.2230   2.9546   2.9610   2.9856   2.9915   3.1552   3.1587
     3.1694   3.1731   3.4820   3.4848   3.6026   3.6035   3.6907   3.6930
     3.7534   3.7593   4.0508   4.0547   4.1282   4.1299   4.3420   4.3438
     4.3909   4.3942   4.8977   4.9011   4.9141   4.9165   5.3637   5.3690
     5.3982   5.4016   5.7239   5.7285   5.7730   5.7769   6.1402   6.1451
     6.1633   6.1676   6.4914   6.4965   6.7660   6.7705   6.9611   6.9685
     7.2528   7.2608

     occupation numbers 
     1.0000   1.0000   1.0000   1.0000   1.0000   1.0000   1.0000   1.0000
     1.0000   1.0000   1.0000   1.0000   1.0000   1.0000   1.0000   1.0000
     1.0000   1.0000   1.0000   1.0000   1.0000   1.0000   1.0000   1.0000
     1.0000   1.0000   1.0000   1.0000   1.0000   1.0000   1.0000   1.0000
     1.0000   1.0000   1.0000   1.0000   1.0000   1.0000   1.0000   1.0000
     1.0000   1.0000   1.0000   1.0000   1.0000   1.0000   1.0000   1.0000
     1.0000   1.0000   1.0000   1.0000   1.0000   1.0000   1.0000   1.0000
     1.0000   1.0000   1.0000   1.0000   1.0000   1.0000   1.0000   1.0000
     1.0000   1.0000   1.0000   1.0000   1.0000   1.0000   1.0000   1.0000
     1.0000   1.0000   1.0000   1.0000   1.0000   1.0000   1.0000   1.0000
     1.0000   1.0000   1.0000   1.0000   1.0000   1.0000   1.0000   1.0000
     1.0000   1.0000   1.0000   1.0000   1.0000   1.0000   1.0000   1.0000
     1.0000   1.0000   1.0000   1.0000   1.0000   1.0000   1.0000   1.0000
     1.0000   1.0000   1.0000   1.0000   1.0000   1.0000   1.0000   1.0000
     1.0000   1.0000   1.0000   1.0000   1.0000   1.0000   1.0000   1.0000
     1.0000   1.0000   1.0000   1.0000   1.0000   1.0000   1.0000   1.0000
     1.0000   1.0000   1.0000   1.0000   1.0000   1.0000   1.0000   1.0000
     1.0000   1.0000

          k = 0.0000 3.6502-0.3347 ( 23494 PWs)   bands (ev):

   -74.8148 -74.8067 -69.9188 -69.9103 -44.0462 -44.0385 -43.6377 -43.6292
   -43.1330 -43.1253 -39.0884 -39.0804 -38.6809 -38.6718 -38.3334 -38.3255
   -16.9585 -16.9584 -16.9554 -16.9553 -16.9524 -16.9523 -16.9520 -16.9519
   -16.9463 -16.9462 -16.9432 -16.9431 -16.9403 -16.9402 -16.9397 -16.9396
   -13.9849 -13.9849 -13.9832 -13.9831 -13.9728 -13.9727 -13.9727 -13.9726
   -13.9709 -13.9708 -13.9708 -13.9707 -13.9607 -13.9606 -13.9586 -13.9585
   -13.9583 -13.9583 -13.9570 -13.9569 -13.9461 -13.9460 -13.9448 -13.9448
    -3.8402  -3.8350  -3.8339  -3.8284  -3.7929  -3.7878  -3.7826  -3.7772
    -3.2043  -3.2025  -3.1526  -3.1457  -3.1046  -3.1037  -3.0132  -3.0084
    -2.3737  -2.3688  -2.3683  -2.3668  -2.1771  -2.1761  -2.1758  -2.1726
     1.7968   1.8045   1.9552   1.9635   2.0048   2.0130   2.2415   2.2494
     2.3291   2.3370   2.5533   2.5555   2.7246   2.7286   2.9430   2.9440
     3.0972   3.1024   3.6564   3.6613   3.7698   3.7742   3.7977   3.7999
     4.2377   4.2383   4.4797   4.4835   4.5320   4.5331   4.6783   4.6804
     4.7161   4.7183   4.9008   4.9027   5.1443   5.1473   5.1630   5.1643
     5.5161   5.5171   5.7881   5.7893   5.9988   6.0030   6.0774   6.0807
     6.2607   6.2651   6.3729   6.3742   6.8270   6.8291   6.9075   6.9144
     7.1630   7.1712

     occupation numbers 
     1.0000   1.0000   1.0000   1.0000   1.0000   1.0000   1.0000   1.0000
     1.0000   1.0000   1.0000   1.0000   1.0000   1.0000   1.0000   1.0000
     1.0000   1.0000   1.0000   1.0000   1.0000   1.0000   1.0000   1.0000
     1.0000   1.0000   1.0000   1.0000   1.0000   1.0000   1.0000   1.0000
     1.0000   1.0000   1.0000   1.0000   1.0000   1.0000   1.0000   1.0000
     1.0000   1.0000   1.0000   1.0000   1.0000   1.0000   1.0000   1.0000
     1.0000   1.0000   1.0000   1.0000   1.0000   1.0000   1.0000   1.0000
     1.0000   1.0000   1.0000   1.0000   1.0000   1.0000   1.0000   1.0000
     1.0000   1.0000   1.0000   1.0000   1.0000   1.0000   1.0000   1.0000
     1.0000   1.0000   1.0000   1.0000   1.0000   1.0000   1.0000   1.0000
     1.0000   1.0000   1.0000   1.0000   1.0000   1.0000   1.0000   1.0000
     1.0000   1.0000   1.0000   1.0000   1.0000   1.0000   1.0000   1.0000
     1.0000   1.0000   1.0000   1.0000   1.0000   1.0000   1.0000   1.0000
     1.0000   1.0000   1.0000   1.0000   1.0000   1.0000   1.0000   1.0000
     1.0000   1.0000   1.0000   1.0000   1.0000   1.0000   1.0000   1.0000
     1.0000   1.0000   1.0000   1.0000   1.0000   1.0000   1.0000   1.0000
     1.0000   1.0000   1.0000   1.0000   1.0000   1.0000   1.0000   1.0000
     1.0000   1.0000

          k = 0.0000 5.4753-0.2510 ( 23474 PWs)   bands (ev):

   -74.8148 -74.8067 -69.9188 -69.9104 -44.0460 -44.0383 -43.6378 -43.6293
   -43.1328 -43.1252 -39.0882 -39.0801 -38.6810 -38.6719 -38.3332 -38.3252
   -16.9598 -16.9597 -16.9564 -16.9563 -16.9526 -16.9525 -16.9519 -16.9519
   -16.9476 -16.9475 -16.9442 -16.9441 -16.9405 -16.9404 -16.9397 -16.9396
   -13.9835 -13.9835 -13.9798 -13.9797 -13.9742 -13.9741 -13.9713 -13.9712
   -13.9707 -13.9706 -13.9677 -13.9676 -13.9621 -13.9620 -13.9620 -13.9619
   -13.9610 -13.9609 -13.9586 -13.9585 -13.9497 -13.9496 -13.9490 -13.9489
    -4.9555  -4.9527  -4.9453  -4.9433  -4.7477  -4.7462  -4.7318  -4.7299
    -3.4410  -3.4365  -3.3629  -3.3609  -3.0345  -3.0302  -2.9293  -2.9271
    -1.6777  -1.6759  -1.5649  -1.5631  -1.3066  -1.3059  -1.2219  -1.2206
     1.9106   1.9190   1.9594   1.9672   2.0272   2.0352   2.1166   2.1247
     2.1594   2.1667   3.3161   3.3170   3.4900   3.4913   3.6768   3.6783
     4.0575   4.0597   4.1518   4.1544   4.2318   4.2361   4.4764   4.4803
     4.5615   4.5671   5.0045   5.0060   5.1417   5.1463   5.2300   5.2327
     5.3144   5.3159   5.7578   5.7588   5.8384   5.8406   5.9121   5.9152
     6.0471   6.0484   6.1964   6.1993   6.2905   6.2910   6.4510   6.4544
     6.6361   6.6390   6.8109   6.8133   7.0562   7.0606   7.1743   7.1777
     7.3959   7.4002

     occupation numbers 
     1.0000   1.0000   1.0000   1.0000   1.0000   1.0000   1.0000   1.0000
     1.0000   1.0000   1.0000   1.0000   1.0000   1.0000   1.0000   1.0000
     1.0000   1.0000   1.0000   1.0000   1.0000   1.0000   1.0000   1.0000
     1.0000   1.0000   1.0000   1.0000   1.0000   1.0000   1.0000   1.0000
     1.0000   1.0000   1.0000   1.0000   1.0000   1.0000   1.0000   1.0000
     1.0000   1.0000   1.0000   1.0000   1.0000   1.0000   1.0000   1.0000
     1.0000   1.0000   1.0000   1.0000   1.0000   1.0000   1.0000   1.0000
     1.0000   1.0000   1.0000   1.0000   1.0000   1.0000   1.0000   1.0000
     1.0000   1.0000   1.0000   1.0000   1.0000   1.0000   1.0000   1.0000
     1.0000   1.0000   1.0000   1.0000   1.0000   1.0000   1.0000   1.0000
     1.0000   1.0000   1.0000   1.0000   1.0000   1.0000   1.0000   1.0000
     1.0000   1.0000   1.0000   1.0000   1.0000   1.0000   1.0000   1.0000
     1.0000   1.0000   1.0000   1.0000   1.0000   1.0000   1.0000   1.0000
     1.0000   1.0000   1.0000   1.0000   1.0000   1.0000   1.0000   1.0000
     1.0000   1.0000   1.0000   1.0000   1.0000   1.0000   1.0000   1.0000
     1.0000   1.0000   1.0000   1.0000   1.0000   1.0000   1.0000   1.0000
     1.0000   1.0000   1.0000   1.0000   1.0000   1.0000   1.0000   1.0000
     1.0000   1.0000

          k = 0.0000 0.0000-0.5021 ( 23456 PWs)   bands (ev):

   -74.8148 -74.8067 -69.9188 -69.9104 -44.0459 -44.0382 -43.6378 -43.6293
   -43.1326 -43.1250 -39.0879 -39.0799 -38.6810 -38.6720 -38.3329 -38.3249
   -16.9613 -16.9613 -16.9578 -16.9578 -16.9522 -16.9521 -16.9520 -16.9519
   -16.9492 -16.9491 -16.9457 -16.9456 -16.9402 -16.9400 -16.9397 -16.9395
   -13.9850 -13.9850 -13.9804 -13.9803 -13.9728 -13.9727 -13.9727 -13.9727
   -13.9684 -13.9683 -13.9683 -13.9682 -13.9649 -13.9648 -13.9641 -13.9639
   -13.9606 -13.9605 -13.9562 -13.9561 -13.9525 -13.9523 -13.9521 -13.9519
    -5.4871  -5.4838  -5.4801  -5.4800  -5.2578  -5.2563  -5.2556  -5.2533
    -3.7815  -3.7730  -3.7324  -3.7263  -3.1968  -3.1926  -3.1882  -3.1861
    -1.3539  -1.3487  -1.3170  -1.3138  -0.6273  -0.6234  -0.6218  -0.6175
     1.8646   1.8739   1.8916   1.8987   1.9416   1.9495   2.1462   2.1536
     2.1615   2.1692   4.0558   4.0627   4.1150   4.1230   4.8914   4.8965
     4.8994   4.9048   5.4054   5.4126   5.4182   5.4256   5.7214   5.7222
     5.7689   5.7706   6.0964   6.0997   6.2810   6.2875   6.2893   6.2918
     6.3067   6.3133   6.3464   6.3478   6.4387   6.4425   6.6227   6.6230
     6.7214   6.7259   6.8983   6.9012   6.9027   6.9057   6.9535   6.9579
     7.2437   7.2529   7.2770   7.2826   7.5169   7.5239   7.5294   7.5387
     7.6502   7.6533

     occupation numbers 
     1.0000   1.0000   1.0000   1.0000   1.0000   1.0000   1.0000   1.0000
     1.0000   1.0000   1.0000   1.0000   1.0000   1.0000   1.0000   1.0000
     1.0000   1.0000   1.0000   1.0000   1.0000   1.0000   1.0000   1.0000
     1.0000   1.0000   1.0000   1.0000   1.0000   1.0000   1.0000   1.0000
     1.0000   1.0000   1.0000   1.0000   1.0000   1.0000   1.0000   1.0000
     1.0000   1.0000   1.0000   1.0000   1.0000   1.0000   1.0000   1.0000
     1.0000   1.0000   1.0000   1.0000   1.0000   1.0000   1.0000   1.0000
     1.0000   1.0000   1.0000   1.0000   1.0000   1.0000   1.0000   1.0000
     1.0000   1.0000   1.0000   1.0000   1.0000   1.0000   1.0000   1.0000
     1.0000   1.0000   1.0000   1.0000   1.0000   1.0000   1.0000   1.0000
     1.0000   1.0000   1.0000   1.0000   1.0000   1.0000   1.0000   1.0000
     1.0000   1.0000   1.0000   1.0000   1.0000   1.0000   1.0000   1.0000
     1.0000   1.0000   1.0000   1.0000   1.0000   1.0000   1.0000   1.0000
     1.0000   1.0000   1.0000   1.0000   1.0000   1.0000   1.0000   1.0000
     1.0000   1.0000   1.0000   1.0000   1.0000   1.0000   1.0000   1.0000
     1.0000   1.0000   1.0000   1.0000   1.0000   1.0000   1.0000   1.0000
     1.0000   1.0000   1.0000   1.0000   1.0000   1.0000   1.0000   1.0000
     1.0000   1.0000

     highest occupied level (ev):     7.6533

!    total energy              =   -7140.60425626 Ry
     total all-electron energy =   -286038.670825 Ry
     estimated scf accuracy    <       0.00007594 Ry

     The total energy is the sum of the following terms:
     one-electron contribution =    -651.47141354 Ry
     hartree contribution      =     403.07547002 Ry
     xc contribution           =    -317.89867591 Ry
     ewald contribution        =    -672.20588499 Ry
     DFT-D3 Dispersion         =      -0.28928769 Ry
     Hubbard energy            =       0.08347506 Ry
     one-center paw contrib.   =   -5901.89793922 Ry
      -> PAW hartree energy AE =     161.14817072 Ry
      -> PAW hartree energy PS =    -162.25844280 Ry
      -> PAW xc energy AE      =    -103.83541979 Ry
      -> PAW xc energy PS      =      27.13256546 Ry
      -> total E_H with PAW    =     401.96519794 Ry
      -> total E_XC with PAW   =    -394.60153024 Ry

     total magnetization       =    -0.00     0.00    -0.00 Bohr mag/cell
     absolute magnetization    =    10.17 Bohr mag/cell

     convergence has been achieved in  14 iterations

     Writing all to output data dir ./tmp/MnBi2Te4.save/
 
     init_run     :     76.28s CPU     77.55s WALL (       1 calls)
     electrons    :   6067.34s CPU   6302.27s WALL (       1 calls)

     Called by init_run:
     wfcinit      :     74.49s CPU     75.51s WALL (       1 calls)
     wfcinit:atom :      0.01s CPU      0.01s WALL (      24 calls)
     wfcinit:wfcr :     71.98s CPU     72.75s WALL (      24 calls)
     potinit      :      0.83s CPU      0.95s WALL (       1 calls)
     hinit0       :      0.41s CPU      0.45s WALL (       1 calls)

     Called by electrons:
     c_bands      :   4926.91s CPU   5122.76s WALL (      14 calls)
     sum_band     :   1109.62s CPU   1145.12s WALL (      14 calls)
     v_of_rho     :      6.27s CPU      7.24s WALL (      15 calls)
     v_h          :      0.45s CPU      0.52s WALL (      15 calls)
     v_xc         :      5.81s CPU      6.71s WALL (      15 calls)
     newd         :      8.00s CPU      8.64s WALL (      15 calls)
     PAW_pot      :      8.90s CPU      9.76s WALL (      15 calls)
     mix_rho      :      4.11s CPU      4.41s WALL (      14 calls)
     energy_dftd3 :      0.05s CPU      0.05s WALL (       1 calls)

     Called by c_bands:
     init_us_2    :      0.72s CPU      0.75s WALL (     720 calls)
     init_us_2:cp :      0.72s CPU      0.75s WALL (     720 calls)
     cegterg      :   4913.29s CPU   5108.59s WALL (     336 calls)

     Called by sum_band:
     sum_band:wei :      0.00s CPU      0.00s WALL (      14 calls)
     sum_band:loo :   1089.88s CPU   1123.90s WALL (      14 calls)
     sum_band:buf :      0.15s CPU      0.22s WALL (     336 calls)
     sum_band:ini :      0.34s CPU      0.36s WALL (     336 calls)
     sum_band:cal :     14.51s CPU     17.95s WALL (     336 calls)
     sum_band:bec :      4.69s CPU      4.76s WALL (     336 calls)
     addusdens    :      5.68s CPU      6.07s WALL (      14 calls)
                                        0.00s GPU  (      14 calls)
     addusd:skk   :      0.00s CPU      0.00s WALL (      56 calls)
                                        0.00s GPU  (      56 calls)

     Called by *egterg:
     cdiaghg      :     57.34s CPU     58.63s WALL (    2633 calls)
     cegterg:over :     47.79s CPU     52.99s WALL (    2297 calls)
     cegterg:upda :      6.19s CPU      6.34s WALL (    2297 calls)
     cegterg:last :     10.63s CPU     10.89s WALL (     918 calls)
     h_psi        :   4814.85s CPU   5001.56s WALL (    2657 calls)
     s_psi        :     18.36s CPU     18.63s WALL (    2681 calls)
     g_psi        :      0.22s CPU      0.22s WALL (    2297 calls)

     Called by h_psi:
     h_psi:calbec :     56.60s CPU     66.79s WALL (    2657 calls)
     vloc_psi     :   4713.78s CPU   4888.18s WALL (    2657 calls)
     add_vuspsi   :     18.02s CPU     18.46s WALL (    2657 calls)
     vhpsi        :     25.95s CPU     27.61s WALL (    2657 calls)

     General routines
     calbec       :     71.73s CPU     85.52s WALL (    3017 calls)
     fft          :      4.04s CPU      4.92s WALL (     429 calls)
     ffts         :      0.62s CPU      0.71s WALL (      56 calls)
     fftw         :   4945.15s CPU   5142.85s WALL (  679104 calls)
     davcio       :      0.00s CPU      0.05s WALL (      24 calls)
 
     Parallel routines

     Hubbard U routines
     new_ns_nc    :      3.37s CPU      3.72s WALL (      14 calls)
     vhpsi        :     25.95s CPU     27.61s WALL (    2657 calls)

     PAW routines
     PAW_pot      :      8.90s CPU      9.76s WALL (      15 calls)
     PAW_symme    :      0.53s CPU      0.58s WALL (      29 calls)
 
     PWSCF        :      1h42m CPU      1h46m WALL

 
   This run was terminated on:  16:24:51   2Oct2025            

=------------------------------------------------------------------------------=
   JOB DONE.
=------------------------------------------------------------------------------=
