
     Program BANDS v.7.2 starts on 14Jun2025 at  3: 9:20 

     This program is part of the open-source Quantum ESPRESSO suite
     for quantum simulation of materials; please cite
         "P. Giannozzi et al., J. Phys.:Condens. Matter 21 395502 (2009);
         "P. Giannozzi et al., J. Phys.:Condens. Matter 29 465901 (2017);
         "P. Giannozzi et al., J. Chem. Phys. 152 154105 (2020);
          URL http://www.quantum-espresso.org", 
     in publications or presentations arising from this work. More details at
     http://www.quantum-espresso.org/quote

     Parallel version (MPI), running on    64 processors

     MPI processes distributed on     1 nodes
     R & G space division:  proc/nbgrp/npool/nimage =      64
     198070 MiB available memory on the printing compute node when the environment starts
 

     Reading xml data from directory:

     ./tmp/MnBi2Te4.save/
     file Mn.pbe-spn-kjpaw_psl.0.3.1.UPF: wavefunction(s)  3P 3D renormalized
     file Mn.pbe-spn-kjpaw_psl.0.3.1.UPF: wavefunction(s)  3P 3D renormalized
     file Bi.pbe-dn-kjpaw_psl.1.0.0.UPF: wavefunction(s)  6P 5D renormalized
     file Te.pbe-n-kjpaw_psl.1.0.0.UPF: wavefunction(s)  5S 5P renormalized

     IMPORTANT: XC functional enforced from input :
     Exchange-correlation= PBE
                           (   1   4   3   4   0   0   0)
     Any further DFT definition will be discarded
     Please, verify this is what you really want

 
     Parallelization info
     --------------------
     sticks:   dense  smooth     PW     G-vecs:    dense   smooth      PW
     Min         126     126     39                 2936     2936     509
     Max         127     127     40                 2938     2938     510
     Sum        8079    8079   2519               187971   187971   32619
 
     Using Slab Decomposition
 

     Check: negative core charge=   -0.000015
     Reading collected, re-writing distributed wavefunctions
     high-symmetry point:  0.0000 0.0000 0.0000   x coordinate   0.0000
     high-symmetry point:  6.3025 3.6540-0.5000   x coordinate   7.3023
     high-symmetry point:  3.1314 5.4696-0.5000   x coordinate  10.9564
     high-symmetry point:  0.0000 0.0000 0.0000   x coordinate  17.2787

     Plottable bands (eV) written to file MnBi2Te4.bandsx.out.gnu
     Bands written to file MnBi2Te4.bandsx.out

 **************************************************************************

                    xk=(   0.00000,   0.00000,   0.00000  )

     point group C_i (-1)   
     there are  2 classes
     the character table:

       E     i    
A_g    1.00  1.00
A_u    1.00 -1.00

     the symmetry operations in each class and the name of the first element:

     E        1
                                                                 
     i        2
                                                                 

     Band symmetry, C_i (-1)    point group:

     e(  1 -  1) =    -73.96621  eV     1   --> A_g            
     e(  2 -  2) =    -69.36065  eV     1   --> A_g            
     e(  3 -  3) =    -42.72012  eV     1   --> A_u            
     e(  4 -  4) =    -42.71496  eV     1   --> A_u            
     e(  5 -  5) =    -42.71374  eV     1   --> A_u            
     e(  6 -  6) =    -38.20193  eV     1   --> A_u            
     e(  7 -  7) =    -38.19763  eV     1   --> A_u            
     e(  8 -  8) =    -38.18296  eV     1   --> A_u            
     e(  9 -  9) =    -15.56855  eV     1   --> A_g            
     e( 10 - 11) =    -15.56840  eV     2   --> A_g            
     e( 10 - 11) =    -15.56840  eV     2   --> A_u            
     e( 12 - 12) =    -15.56816  eV     1   --> A_u            
     e( 13 - 13) =    -15.56683  eV     1   --> A_g            
     e( 14 - 14) =    -15.56673  eV     1   --> A_u            
     e( 15 - 15) =    -15.56541  eV     1   --> A_g            
     e( 16 - 16) =    -15.56530  eV     1   --> A_u            
     e( 17 - 17) =    -15.55754  eV     1   --> A_g            
     e( 18 - 18) =    -15.55722  eV     1   --> A_u            
     e( 19 - 19) =    -15.55500  eV     1   --> A_g            
     e( 20 - 20) =    -15.55466  eV     1   --> A_u            
     e( 21 - 21) =    -15.55296  eV     1   --> A_g            
     e( 22 - 22) =    -15.55280  eV     1   --> A_u            
     e( 23 - 23) =    -15.55241  eV     1   --> A_g            
     e( 24 - 24) =    -15.55225  eV     1   --> A_u            
     e( 25 - 25) =    -15.54798  eV     1   --> A_g            
     e( 26 - 26) =    -15.54783  eV     1   --> A_u            
     e( 27 - 27) =    -15.54746  eV     1   --> A_g            
     e( 28 - 28) =    -15.54731  eV     1   --> A_u            
     e( 29 - 29) =     -5.60831  eV     1   --> A_g            
     e( 30 - 30) =     -5.57886  eV     1   --> A_u            
     e( 31 - 31) =     -5.41219  eV     1   --> A_g            
     e( 32 - 32) =     -5.36749  eV     1   --> A_u            
     e( 33 - 33) =     -3.84827  eV     1   --> A_g            
     e( 34 - 34) =     -3.63404  eV     1   --> A_g            
     e( 35 - 35) =     -3.38582  eV     1   --> A_u            
     e( 36 - 36) =     -3.10642  eV     1   --> A_u            
     e( 37 - 37) =     -1.58221  eV     1   --> A_g            
     e( 38 - 38) =     -1.24412  eV     1   --> A_u            
     e( 39 - 39) =     -0.89785  eV     1   --> A_g            
     e( 40 - 40) =     -0.62750  eV     1   --> A_u            
     e( 41 - 41) =      3.69918  eV     1   --> A_g            
     e( 42 - 42) =      4.21383  eV     1   --> A_g            
     e( 43 - 43) =      4.25834  eV     1   --> A_g            
     e( 44 - 44) =      4.25886  eV     1   --> A_g            
     e( 45 - 45) =      4.86083  eV     1   --> A_g            
     e( 46 - 46) =      4.86283  eV     1   --> A_g            
     e( 47 - 47) =      5.07940  eV     1   --> A_u            
     e( 48 - 48) =      5.18017  eV     1   --> A_g            
     e( 49 - 49) =      5.56914  eV     1   --> A_g            
     e( 50 - 50) =      5.83086  eV     1   --> A_g            
     e( 51 - 51) =      5.83229  eV     1   --> A_g            
     e( 52 - 52) =      5.93472  eV     1   --> A_u            
     e( 53 - 53) =      5.93514  eV     1   --> A_u            
     e( 54 - 54) =      6.01836  eV     1   --> A_g            
     e( 55 - 55) =      6.01965  eV     1   --> A_g            
     e( 56 - 56) =      6.14876  eV     1   --> A_u            
     e( 57 - 57) =      6.14911  eV     1   --> A_u            
     e( 58 - 58) =      6.21852  eV     1   --> A_u            
     e( 59 - 59) =      6.30950  eV     1   --> A_g            
     e( 60 - 60) =      6.31038  eV     1   --> A_g            
     e( 61 - 61) =      6.57292  eV     1   --> A_u            
     e( 62 - 62) =      6.91311  eV     1   --> A_u            
     e( 63 - 63) =      6.91379  eV     1   --> A_u            
     e( 64 - 64) =      7.02806  eV     1   --> A_u            
     e( 65 - 65) =      7.02876  eV     1   --> A_u            
     e( 66 - 66) =      7.47220  eV     1   --> A_g            
     e( 67 - 67) =      7.48678  eV     1   --> A_g            
     e( 68 - 68) =      7.48693  eV     1   --> A_g            
     e( 69 - 69) =      7.74119  eV     1   --> A_u            
     e( 70 - 70) =      8.31818  eV     1   --> A_g            
     e( 71 - 71) =      8.57180  eV     1   --> A_g            
     e( 72 - 72) =      8.57301  eV     1   --> A_g            
     e( 73 - 73) =      8.59230  eV     1   --> A_g            
     e( 74 - 74) =      8.84070  eV     1   --> A_g            
     e( 75 - 75) =      8.84479  eV     1   --> A_g            
     e( 76 - 76) =      8.87278  eV     1   --> A_u            
     e( 77 - 77) =      8.87318  eV     1   --> A_u            
     e( 78 - 78) =      8.90619  eV     1   --> A_g            
     e( 79 - 79) =      8.98661  eV     1   --> A_u            
     e( 80 - 80) =      9.14386  eV     1   --> A_u            
     e( 81 - 81) =      9.27070  eV     1   --> A_u            
     e( 82 - 82) =      9.27133  eV     1   --> A_u            
     e( 83 - 83) =      9.31463  eV     1   --> A_g            

 **************************************************************************

 **************************************************************************

                    xk=(   0.12605,   0.07308,  -0.01000  )

     point group C_1 (1)    
     there are  1 classes
     the character table:

       E    
A      1.00

     the symmetry operations in each class and the name of the first element:

     E        1
                                                                 

     Band symmetry, C_1 (1)     point group:

     e(  1 -  1) =    -73.96621  eV     1   --> A              
     e(  2 -  2) =    -69.36064  eV     1   --> A              
     e(  3 -  3) =    -42.72013  eV     1   --> A              
     e(  4 -  4) =    -42.71496  eV     1   --> A              
     e(  5 -  5) =    -42.71374  eV     1   --> A              
     e(  6 -  6) =    -38.20193  eV     1   --> A              
     e(  7 -  7) =    -38.19763  eV     1   --> A              
     e(  8 -  8) =    -38.18296  eV     1   --> A              
     e(  9 -  9) =    -15.56845  eV     1   --> A              
     e( 10 - 11) =    -15.56835  eV     2   -->   2 A              
     e( 12 - 12) =    -15.56818  eV     1   --> A              
     e( 13 - 14) =    -15.56684  eV     2   -->   2 A              
     e( 15 - 16) =    -15.56534  eV     2   -->   2 A              
     e( 17 - 17) =    -15.55748  eV     1   --> A              
     e( 18 - 18) =    -15.55719  eV     1   --> A              
     e( 19 - 19) =    -15.55495  eV     1   --> A              
     e( 20 - 20) =    -15.55463  eV     1   --> A              
     e( 21 - 21) =    -15.55291  eV     1   --> A              
     e( 22 - 22) =    -15.55280  eV     1   --> A              
     e( 23 - 24) =    -15.55238  eV     2   -->   2 A              
     e( 25 - 25) =    -15.54793  eV     1   --> A              
     e( 26 - 26) =    -15.54783  eV     1   --> A              
     e( 27 - 28) =    -15.54744  eV     2   -->   2 A              
     e( 29 - 29) =     -5.60479  eV     1   --> A              
     e( 30 - 30) =     -5.57536  eV     1   --> A              
     e( 31 - 31) =     -5.40875  eV     1   --> A              
     e( 32 - 32) =     -5.36408  eV     1   --> A              
     e( 33 - 33) =     -3.84569  eV     1   --> A              
     e( 34 - 34) =     -3.63165  eV     1   --> A              
     e( 35 - 35) =     -3.38384  eV     1   --> A              
     e( 36 - 36) =     -3.10481  eV     1   --> A              
     e( 37 - 37) =     -1.58303  eV     1   --> A              
     e( 38 - 38) =     -1.24630  eV     1   --> A              
     e( 39 - 39) =     -0.90087  eV     1   --> A              
     e( 40 - 40) =     -0.63215  eV     1   --> A              
     e( 41 - 41) =      3.69901  eV     1   --> A              
     e( 42 - 42) =      4.21077  eV     1   --> A              
     e( 43 - 43) =      4.25559  eV     1   --> A              
     e( 44 - 44) =      4.25946  eV     1   --> A              
     e( 45 - 45) =      4.85942  eV     1   --> A              
     e( 46 - 46) =      4.86180  eV     1   --> A              
     e( 47 - 47) =      5.07198  eV     1   --> A              
     e( 48 - 48) =      5.17327  eV     1   --> A              
     e( 49 - 49) =      5.51246  eV     1   --> A              
     e( 50 - 50) =      5.82076  eV     1   --> A              
     e( 51 - 51) =      5.82210  eV     1   --> A              
     e( 52 - 52) =      5.92062  eV     1   --> A              
     e( 53 - 53) =      5.93038  eV     1   --> A              
     e( 54 - 54) =      5.96663  eV     1   --> A              
     e( 55 - 55) =      6.00112  eV     1   --> A              
     e( 56 - 56) =      6.15146  eV     1   --> A              
     e( 57 - 57) =      6.16381  eV     1   --> A              
     e( 58 - 58) =      6.20220  eV     1   --> A              
     e( 59 - 59) =      6.30340  eV     1   --> A              
     e( 60 - 60) =      6.32075  eV     1   --> A              
     e( 61 - 61) =      6.66996  eV     1   --> A              
     e( 62 - 62) =      6.87015  eV     1   --> A              
     e( 63 - 63) =      6.91889  eV     1   --> A              
     e( 64 - 64) =      6.97633  eV     1   --> A              
     e( 65 - 65) =      7.01798  eV     1   --> A              
     e( 66 - 66) =      7.43027  eV     1   --> A              
     e( 67 - 67) =      7.48917  eV     1   --> A              
     e( 68 - 68) =      7.50151  eV     1   --> A              
     e( 69 - 69) =      7.74276  eV     1   --> A              
     e( 70 - 70) =      8.35730  eV     1   --> A              
     e( 71 - 71) =      8.56825  eV     1   --> A              
     e( 72 - 72) =      8.57268  eV     1   --> A              
     e( 73 - 73) =      8.58724  eV     1   --> A              
     e( 74 - 74) =      8.82913  eV     1   --> A              
     e( 75 - 75) =      8.83631  eV     1   --> A              
     e( 76 - 76) =      8.90514  eV     1   --> A              
     e( 77 - 77) =      8.90722  eV     1   --> A              
     e( 78 - 78) =      8.91964  eV     1   --> A              
     e( 79 - 79) =      9.03696  eV     1   --> A              
     e( 80 - 80) =      9.13363  eV     1   --> A              
     e( 81 - 81) =      9.22952  eV     1   --> A              
     e( 82 - 82) =      9.23206  eV     1   --> A              
     e( 83 - 83) =      9.35610  eV     1   --> A              

 **************************************************************************

 **************************************************************************

                    xk=(   0.25210,   0.14616,  -0.02000  )

     Band symmetry, C_1 (1)     point group:

     e(  1 -  1) =    -73.96621  eV     1   --> A              
     e(  2 -  2) =    -69.36064  eV     1   --> A              
     e(  3 -  3) =    -42.72013  eV     1   --> A              
     e(  4 -  4) =    -42.71496  eV     1   --> A              
     e(  5 -  5) =    -42.71374  eV     1   --> A              
     e(  6 -  6) =    -38.20194  eV     1   --> A              
     e(  7 -  7) =    -38.19764  eV     1   --> A              
     e(  8 -  8) =    -38.18296  eV     1   --> A              
     e(  9 - 12) =    -15.56842  eV     4   -->   4 A              
     e( 13 - 14) =    -15.56694  eV     2   -->   2 A              
     e( 15 - 16) =    -15.56519  eV     2   -->   2 A              
     e( 17 - 17) =    -15.55732  eV     1   --> A              
     e( 18 - 18) =    -15.55709  eV     1   --> A              
     e( 19 - 19) =    -15.55478  eV     1   --> A              
     e( 20 - 20) =    -15.55454  eV     1   --> A              
     e( 21 - 22) =    -15.55289  eV     2   -->   2 A              
     e( 23 - 24) =    -15.55244  eV     2   -->   2 A              
     e( 25 - 26) =    -15.54790  eV     2   -->   2 A              
     e( 27 - 28) =    -15.54748  eV     2   -->   2 A              
     e( 29 - 29) =     -5.59422  eV     1   --> A              
     e( 30 - 30) =     -5.56485  eV     1   --> A              
     e( 31 - 31) =     -5.39842  eV     1   --> A              
     e( 32 - 32) =     -5.35385  eV     1   --> A              
     e( 33 - 33) =     -3.83795  eV     1   --> A              
     e( 34 - 34) =     -3.62451  eV     1   --> A              
     e( 35 - 35) =     -3.37795  eV     1   --> A              
     e( 36 - 36) =     -3.09998  eV     1   --> A              
     e( 37 - 37) =     -1.58559  eV     1   --> A              
     e( 38 - 38) =     -1.25290  eV     1   --> A              
     e( 39 - 39) =     -0.91001  eV     1   --> A              
     e( 40 - 40) =     -0.64611  eV     1   --> A              
     e( 41 - 41) =      3.69823  eV     1   --> A              
     e( 42 - 42) =      4.20160  eV     1   --> A              
     e( 43 - 43) =      4.24734  eV     1   --> A              
     e( 44 - 44) =      4.26129  eV     1   --> A              
     e( 45 - 45) =      4.85487  eV     1   --> A              
     e( 46 - 46) =      4.85871  eV     1   --> A              
     e( 47 - 47) =      5.04786  eV     1   --> A              
     e( 48 - 48) =      5.15034  eV     1   --> A              
     e( 49 - 49) =      5.38524  eV     1   --> A              
     e( 50 - 50) =      5.77366  eV     1   --> A              
     e( 51 - 51) =      5.79593  eV     1   --> A              
     e( 52 - 52) =      5.82258  eV     1   --> A              
     e( 53 - 53) =      5.90687  eV     1   --> A              
     e( 54 - 54) =      5.96924  eV     1   --> A              
     e( 55 - 55) =      5.96954  eV     1   --> A              
     e( 56 - 56) =      5.99332  eV     1   --> A              
     e( 57 - 57) =      6.14058  eV     1   --> A              
     e( 58 - 58) =      6.28446  eV     1   --> A              
     e( 59 - 59) =      6.29301  eV     1   --> A              
     e( 60 - 60) =      6.43936  eV     1   --> A              
     e( 61 - 61) =      6.69617  eV     1   --> A              
     e( 62 - 62) =      6.85053  eV     1   --> A              
     e( 63 - 63) =      6.89867  eV     1   --> A              
     e( 64 - 64) =      6.92833  eV     1   --> A              
     e( 65 - 65) =      6.99476  eV     1   --> A              
     e( 66 - 66) =      7.30530  eV     1   --> A              
     e( 67 - 67) =      7.49335  eV     1   --> A              
     e( 68 - 68) =      7.53404  eV     1   --> A              
     e( 69 - 69) =      7.71559  eV     1   --> A              
     e( 70 - 70) =      8.43772  eV     1   --> A              
     e( 71 - 71) =      8.57998  eV     1   --> A              
     e( 72 - 72) =      8.58446  eV     1   --> A              
     e( 73 - 73) =      8.61688  eV     1   --> A              
     e( 74 - 74) =      8.81938  eV     1   --> A              
     e( 75 - 75) =      8.83481  eV     1   --> A              
     e( 76 - 76) =      8.91157  eV     1   --> A              
     e( 77 - 77) =      8.97219  eV     1   --> A              
     e( 78 - 78) =      8.98033  eV     1   --> A              
     e( 79 - 79) =      9.08695  eV     1   --> A              
     e( 80 - 80) =      9.16462  eV     1   --> A              
     e( 81 - 81) =      9.18514  eV     1   --> A              
     e( 82 - 82) =      9.23130  eV     1   --> A              
     e( 83 - 83) =      9.41170  eV     1   --> A              

 **************************************************************************

 **************************************************************************

                    xk=(   0.37815,   0.21924,  -0.03000  )

     Band symmetry, C_1 (1)     point group:

     e(  1 -  1) =    -73.96621  eV     1   --> A              
     e(  2 -  2) =    -69.36064  eV     1   --> A              
     e(  3 -  3) =    -42.72014  eV     1   --> A              
     e(  4 -  4) =    -42.71497  eV     1   --> A              
     e(  5 -  5) =    -42.71374  eV     1   --> A              
     e(  6 -  6) =    -38.20196  eV     1   --> A              
     e(  7 -  7) =    -38.19764  eV     1   --> A              
     e(  8 -  8) =    -38.18296  eV     1   --> A              
     e(  9 - 10) =    -15.56852  eV     2   -->   2 A              
     e( 11 - 12) =    -15.56802  eV     2   -->   2 A              
     e( 13 - 14) =    -15.56705  eV     2   -->   2 A              
     e( 15 - 16) =    -15.56499  eV     2   -->   2 A              
     e( 17 - 17) =    -15.55713  eV     1   --> A              
     e( 18 - 18) =    -15.55693  eV     1   --> A              
     e( 19 - 19) =    -15.55460  eV     1   --> A              
     e( 20 - 20) =    -15.55437  eV     1   --> A              
     e( 21 - 22) =    -15.55286  eV     2   -->   2 A              
     e( 23 - 24) =    -15.55243  eV     2   -->   2 A              
     e( 25 - 26) =    -15.54787  eV     2   -->   2 A              
     e( 27 - 28) =    -15.54747  eV     2   -->   2 A              
     e( 29 - 29) =     -5.57664  eV     1   --> A              
     e( 30 - 30) =     -5.54737  eV     1   --> A              
     e( 31 - 31) =     -5.38123  eV     1   --> A              
     e( 32 - 32) =     -5.33683  eV     1   --> A              
     e( 33 - 33) =     -3.82514  eV     1   --> A              
     e( 34 - 34) =     -3.61268  eV     1   --> A              
     e( 35 - 35) =     -3.36821  eV     1   --> A              
     e( 36 - 36) =     -3.09202  eV     1   --> A              
     e( 37 - 37) =     -1.59005  eV     1   --> A              
     e( 38 - 38) =     -1.26402  eV     1   --> A              
     e( 39 - 39) =     -0.92543  eV     1   --> A              
     e( 40 - 40) =     -0.66935  eV     1   --> A              
     e( 41 - 41) =      3.69604  eV     1   --> A              
     e( 42 - 42) =      4.18653  eV     1   --> A              
     e( 43 - 43) =      4.23379  eV     1   --> A              
     e( 44 - 44) =      4.26427  eV     1   --> A              
     e( 45 - 45) =      4.84583  eV     1   --> A              
     e( 46 - 46) =      4.85365  eV     1   --> A              
     e( 47 - 47) =      5.00173  eV     1   --> A              
     e( 48 - 48) =      5.09622  eV     1   --> A              
     e( 49 - 49) =      5.25452  eV     1   --> A              
     e( 50 - 50) =      5.65389  eV     1   --> A              
     e( 51 - 51) =      5.74672  eV     1   --> A              
     e( 52 - 52) =      5.75629  eV     1   --> A              
     e( 53 - 53) =      5.81344  eV     1   --> A              
     e( 54 - 54) =      5.85293  eV     1   --> A              
     e( 55 - 55) =      5.94585  eV     1   --> A              
     e( 56 - 56) =      6.00611  eV     1   --> A              
     e( 57 - 57) =      6.09923  eV     1   --> A              
     e( 58 - 58) =      6.28965  eV     1   --> A              
     e( 59 - 59) =      6.34466  eV     1   --> A              
     e( 60 - 60) =      6.49103  eV     1   --> A              
     e( 61 - 61) =      6.57086  eV     1   --> A              
     e( 62 - 62) =      6.79760  eV     1   --> A              
     e( 63 - 63) =      6.91598  eV     1   --> A              
     e( 64 - 64) =      6.98340  eV     1   --> A              
     e( 65 - 65) =      7.03310  eV     1   --> A              
     e( 66 - 66) =      7.15433  eV     1   --> A              
     e( 67 - 67) =      7.49065  eV     1   --> A              
     e( 68 - 68) =      7.49514  eV     1   --> A              
     e( 69 - 69) =      7.67252  eV     1   --> A              
     e( 70 - 70) =      8.50253  eV     1   --> A              
     e( 71 - 71) =      8.60299  eV     1   --> A              
     e( 72 - 72) =      8.60627  eV     1   --> A              
     e( 73 - 73) =      8.73692  eV     1   --> A              
     e( 74 - 74) =      8.80360  eV     1   --> A              
     e( 75 - 75) =      8.84173  eV     1   --> A              
     e( 76 - 76) =      8.92158  eV     1   --> A              
     e( 77 - 77) =      9.00811  eV     1   --> A              
     e( 78 - 78) =      9.04586  eV     1   --> A              
     e( 79 - 79) =      9.09475  eV     1   --> A              
     e( 80 - 80) =      9.16224  eV     1   --> A              
     e( 81 - 81) =      9.25060  eV     1   --> A              
     e( 82 - 82) =      9.31334  eV     1   --> A              
     e( 83 - 83) =      9.46284  eV     1   --> A              

 **************************************************************************

 **************************************************************************

                    xk=(   0.50420,   0.29232,  -0.04000  )

     Band symmetry, C_1 (1)     point group:

     e(  1 -  1) =    -73.96621  eV     1   --> A              
     e(  2 -  2) =    -69.36064  eV     1   --> A              
     e(  3 -  3) =    -42.72016  eV     1   --> A              
     e(  4 -  4) =    -42.71497  eV     1   --> A              
     e(  5 -  5) =    -42.71374  eV     1   --> A              
     e(  6 -  6) =    -38.20198  eV     1   --> A              
     e(  7 -  7) =    -38.19765  eV     1   --> A              
     e(  8 -  8) =    -38.18296  eV     1   --> A              
     e(  9 - 10) =    -15.56880  eV     2   -->   2 A              
     e( 11 - 12) =    -15.56775  eV     2   -->   2 A              
     e( 13 - 14) =    -15.56734  eV     2   -->   2 A              
     e( 15 - 16) =    -15.56474  eV     2   -->   2 A              
     e( 17 - 17) =    -15.55689  eV     1   --> A              
     e( 18 - 18) =    -15.55668  eV     1   --> A              
     e( 19 - 19) =    -15.55436  eV     1   --> A              
     e( 20 - 20) =    -15.55413  eV     1   --> A              
     e( 21 - 22) =    -15.55288  eV     2   -->   2 A              
     e( 23 - 24) =    -15.55253  eV     2   -->   2 A              
     e( 25 - 26) =    -15.54790  eV     2   -->   2 A              
     e( 27 - 28) =    -15.54752  eV     2   -->   2 A              
     e( 29 - 29) =     -5.55207  eV     1   --> A              
     e( 30 - 30) =     -5.52294  eV     1   --> A              
     e( 31 - 31) =     -5.35723  eV     1   --> A              
     e( 32 - 32) =     -5.31306  eV     1   --> A              
     e( 33 - 33) =     -3.80734  eV     1   --> A              
     e( 34 - 34) =     -3.59626  eV     1   --> A              
     e( 35 - 35) =     -3.35477  eV     1   --> A              
     e( 36 - 36) =     -3.08105  eV     1   --> A              
     e( 37 - 37) =     -1.59675  eV     1   --> A              
     e( 38 - 38) =     -1.27984  eV     1   --> A              
     e( 39 - 39) =     -0.94741  eV     1   --> A              
     e( 40 - 40) =     -0.70185  eV     1   --> A              
     e( 41 - 41) =      3.69118  eV     1   --> A              
     e( 42 - 42) =      4.16592  eV     1   --> A              
     e( 43 - 43) =      4.21458  eV     1   --> A              
     e( 44 - 44) =      4.26826  eV     1   --> A              
     e( 45 - 45) =      4.82621  eV     1   --> A              
     e( 46 - 46) =      4.84676  eV     1   --> A              
     e( 47 - 47) =      4.92883  eV     1   --> A              
     e( 48 - 48) =      4.98247  eV     1   --> A              
     e( 49 - 49) =      5.17670  eV     1   --> A              
     e( 50 - 50) =      5.52229  eV     1   --> A              
     e( 51 - 51) =      5.58686  eV     1   --> A              
     e( 52 - 52) =      5.70490  eV     1   --> A              
     e( 53 - 53) =      5.75100  eV     1   --> A              
     e( 54 - 54) =      5.78300  eV     1   --> A              
     e( 55 - 55) =      5.91919  eV     1   --> A              
     e( 56 - 56) =      6.00329  eV     1   --> A              
     e( 57 - 57) =      6.03684  eV     1   --> A              
     e( 58 - 58) =      6.27667  eV     1   --> A              
     e( 59 - 59) =      6.28772  eV     1   --> A              
     e( 60 - 60) =      6.41165  eV     1   --> A              
     e( 61 - 61) =      6.53220  eV     1   --> A              
     e( 62 - 62) =      6.87675  eV     1   --> A              
     e( 63 - 63) =      6.88008  eV     1   --> A              
     e( 64 - 64) =      6.98189  eV     1   --> A              
     e( 65 - 65) =      6.98418  eV     1   --> A              
     e( 66 - 66) =      7.14823  eV     1   --> A              
     e( 67 - 67) =      7.40120  eV     1   --> A              
     e( 68 - 68) =      7.49355  eV     1   --> A              
     e( 69 - 69) =      7.61638  eV     1   --> A              
     e( 70 - 70) =      8.48998  eV     1   --> A              
     e( 71 - 71) =      8.64290  eV     1   --> A              
     e( 72 - 72) =      8.71118  eV     1   --> A              
     e( 73 - 73) =      8.78747  eV     1   --> A              
     e( 74 - 74) =      8.85148  eV     1   --> A              
     e( 75 - 75) =      8.85515  eV     1   --> A              
     e( 76 - 76) =      8.95195  eV     1   --> A              
     e( 77 - 77) =      9.00377  eV     1   --> A              
     e( 78 - 78) =      9.06822  eV     1   --> A              
     e( 79 - 79) =      9.13937  eV     1   --> A              
     e( 80 - 80) =      9.21836  eV     1   --> A              
     e( 81 - 81) =      9.35213  eV     1   --> A              
     e( 82 - 82) =      9.39586  eV     1   --> A              
     e( 83 - 83) =      9.50510  eV     1   --> A              

 **************************************************************************

 **************************************************************************

                    xk=(   0.63025,   0.36540,  -0.05000  )

     Band symmetry, C_1 (1)     point group:

     e(  1 -  1) =    -73.96621  eV     1   --> A              
     e(  2 -  2) =    -69.36064  eV     1   --> A              
     e(  3 -  3) =    -42.72017  eV     1   --> A              
     e(  4 -  4) =    -42.71497  eV     1   --> A              
     e(  5 -  5) =    -42.71374  eV     1   --> A              
     e(  6 -  6) =    -38.20201  eV     1   --> A              
     e(  7 -  7) =    -38.19765  eV     1   --> A              
     e(  8 -  8) =    -38.18295  eV     1   --> A              
     e(  9 - 10) =    -15.56910  eV     2   -->   2 A              
     e( 11 - 12) =    -15.56764  eV     2   -->   2 A              
     e( 13 - 14) =    -15.56733  eV     2   -->   2 A              
     e( 15 - 16) =    -15.56435  eV     2   -->   2 A              
     e( 17 - 17) =    -15.55657  eV     1   --> A              
     e( 18 - 18) =    -15.55635  eV     1   --> A              
     e( 19 - 19) =    -15.55403  eV     1   --> A              
     e( 20 - 20) =    -15.55381  eV     1   --> A              
     e( 21 - 22) =    -15.55295  eV     2   -->   2 A              
     e( 23 - 24) =    -15.55244  eV     2   -->   2 A              
     e( 25 - 26) =    -15.54796  eV     2   -->   2 A              
     e( 27 - 28) =    -15.54742  eV     2   -->   2 A              
     e( 29 - 29) =     -5.52057  eV     1   --> A              
     e( 30 - 30) =     -5.49162  eV     1   --> A              
     e( 31 - 31) =     -5.32647  eV     1   --> A              
     e( 32 - 32) =     -5.28260  eV     1   --> A              
     e( 33 - 33) =     -3.78471  eV     1   --> A              
     e( 34 - 34) =     -3.57541  eV     1   --> A              
     e( 35 - 35) =     -3.33781  eV     1   --> A              
     e( 36 - 36) =     -3.06727  eV     1   --> A              
     e( 37 - 37) =     -1.60610  eV     1   --> A              
     e( 38 - 38) =     -1.30064  eV     1   --> A              
     e( 39 - 39) =     -0.97626  eV     1   --> A              
     e( 40 - 40) =     -0.74357  eV     1   --> A              
     e( 41 - 41) =      3.68204  eV     1   --> A              
     e( 42 - 42) =      4.13936  eV     1   --> A              
     e( 43 - 43) =      4.18914  eV     1   --> A              
     e( 44 - 44) =      4.27314  eV     1   --> A              
     e( 45 - 45) =      4.76171  eV     1   --> A              
     e( 46 - 46) =      4.83821  eV     1   --> A              
     e( 47 - 47) =      4.83996  eV     1   --> A              
     e( 48 - 48) =      4.85758  eV     1   --> A              
     e( 49 - 49) =      5.13408  eV     1   --> A              
     e( 50 - 50) =      5.36833  eV     1   --> A              
     e( 51 - 51) =      5.46302  eV     1   --> A              
     e( 52 - 52) =      5.64261  eV     1   --> A              
     e( 53 - 53) =      5.69116  eV     1   --> A              
     e( 54 - 54) =      5.70768  eV     1   --> A              
     e( 55 - 55) =      5.87735  eV     1   --> A              
     e( 56 - 56) =      5.91550  eV     1   --> A              
     e( 57 - 57) =      5.96926  eV     1   --> A              
     e( 58 - 58) =      6.17562  eV     1   --> A              
     e( 59 - 59) =      6.28024  eV     1   --> A              
     e( 60 - 60) =      6.28441  eV     1   --> A              
     e( 61 - 61) =      6.60131  eV     1   --> A              
     e( 62 - 62) =      6.77724  eV     1   --> A              
     e( 63 - 63) =      6.84147  eV     1   --> A              
     e( 64 - 64) =      6.97461  eV     1   --> A              
     e( 65 - 65) =      7.00788  eV     1   --> A              
     e( 66 - 66) =      7.12385  eV     1   --> A              
     e( 67 - 67) =      7.38282  eV     1   --> A              
     e( 68 - 68) =      7.49073  eV     1   --> A              
     e( 69 - 69) =      7.53786  eV     1   --> A              
     e( 70 - 70) =      8.45188  eV     1   --> A              
     e( 71 - 71) =      8.69323  eV     1   --> A              
     e( 72 - 72) =      8.75952  eV     1   --> A              
     e( 73 - 73) =      8.85375  eV     1   --> A              
     e( 74 - 74) =      8.87346  eV     1   --> A              
     e( 75 - 75) =      8.89367  eV     1   --> A              
     e( 76 - 76) =      8.96785  eV     1   --> A              
     e( 77 - 77) =      9.06544  eV     1   --> A              
     e( 78 - 78) =      9.09286  eV     1   --> A              
     e( 79 - 79) =      9.17215  eV     1   --> A              
     e( 80 - 80) =      9.32781  eV     1   --> A              
     e( 81 - 81) =      9.37941  eV     1   --> A              
     e( 82 - 82) =      9.53580  eV     1   --> A              
     e( 83 - 83) =      9.59949  eV     1   --> A              

 **************************************************************************

 **************************************************************************

                    xk=(   0.75630,   0.43848,  -0.06000  )

     Band symmetry, C_1 (1)     point group:

     e(  1 -  1) =    -73.96621  eV     1   --> A              
     e(  2 -  2) =    -69.36064  eV     1   --> A              
     e(  3 -  3) =    -42.72020  eV     1   --> A              
     e(  4 -  4) =    -42.71498  eV     1   --> A              
     e(  5 -  5) =    -42.71373  eV     1   --> A              
     e(  6 -  6) =    -38.20205  eV     1   --> A              
     e(  7 -  7) =    -38.19766  eV     1   --> A              
     e(  8 -  8) =    -38.18294  eV     1   --> A              
     e(  9 - 10) =    -15.56952  eV     2   -->   2 A              
     e( 11 - 12) =    -15.56808  eV     2   -->   2 A              
     e( 13 - 14) =    -15.56700  eV     2   -->   2 A              
     e( 15 - 16) =    -15.56405  eV     2   -->   2 A              
     e( 17 - 17) =    -15.55621  eV     1   --> A              
     e( 18 - 18) =    -15.55602  eV     1   --> A              
     e( 19 - 19) =    -15.55369  eV     1   --> A              
     e( 20 - 20) =    -15.55348  eV     1   --> A              
     e( 21 - 22) =    -15.55313  eV     2   -->   2 A              
     e( 23 - 24) =    -15.55232  eV     2   -->   2 A              
     e( 25 - 26) =    -15.54810  eV     2   -->   2 A              
     e( 27 - 28) =    -15.54728  eV     2   -->   2 A              
     e( 29 - 29) =     -5.48220  eV     1   --> A              
     e( 30 - 30) =     -5.45347  eV     1   --> A              
     e( 31 - 31) =     -5.28904  eV     1   --> A              
     e( 32 - 32) =     -5.24553  eV     1   --> A              
     e( 33 - 33) =     -3.75744  eV     1   --> A              
     e( 34 - 34) =     -3.55033  eV     1   --> A              
     e( 35 - 35) =     -3.31757  eV     1   --> A              
     e( 36 - 36) =     -3.05092  eV     1   --> A              
     e( 37 - 37) =     -1.61863  eV     1   --> A              
     e( 38 - 38) =     -1.32675  eV     1   --> A              
     e( 39 - 39) =     -1.01232  eV     1   --> A              
     e( 40 - 40) =     -0.79442  eV     1   --> A              
     e( 41 - 41) =      3.66681  eV     1   --> A              
     e( 42 - 42) =      4.10330  eV     1   --> A              
     e( 43 - 43) =      4.15795  eV     1   --> A              
     e( 44 - 44) =      4.27864  eV     1   --> A              
     e( 45 - 45) =      4.63408  eV     1   --> A              
     e( 46 - 46) =      4.69497  eV     1   --> A              
     e( 47 - 47) =      4.81848  eV     1   --> A              
     e( 48 - 48) =      4.82823  eV     1   --> A              
     e( 49 - 49) =      5.09758  eV     1   --> A              
     e( 50 - 50) =      5.20619  eV     1   --> A              
     e( 51 - 51) =      5.38367  eV     1   --> A              
     e( 52 - 52) =      5.57058  eV     1   --> A              
     e( 53 - 53) =      5.60548  eV     1   --> A              
     e( 54 - 54) =      5.63086  eV     1   --> A              
     e( 55 - 55) =      5.74847  eV     1   --> A              
     e( 56 - 56) =      5.81533  eV     1   --> A              
     e( 57 - 57) =      5.90624  eV     1   --> A              
     e( 58 - 58) =      6.07012  eV     1   --> A              
     e( 59 - 59) =      6.23748  eV     1   --> A              
     e( 60 - 60) =      6.26617  eV     1   --> A              
     e( 61 - 61) =      6.61548  eV     1   --> A              
     e( 62 - 62) =      6.66271  eV     1   --> A              
     e( 63 - 63) =      6.80633  eV     1   --> A              
     e( 64 - 64) =      6.94786  eV     1   --> A              
     e( 65 - 65) =      6.98155  eV     1   --> A              
     e( 66 - 66) =      7.07191  eV     1   --> A              
     e( 67 - 67) =      7.41086  eV     1   --> A              
     e( 68 - 68) =      7.46661  eV     1   --> A              
     e( 69 - 69) =      7.48857  eV     1   --> A              
     e( 70 - 70) =      8.44035  eV     1   --> A              
     e( 71 - 71) =      8.74338  eV     1   --> A              
     e( 72 - 72) =      8.75007  eV     1   --> A              
     e( 73 - 73) =      8.84497  eV     1   --> A              
     e( 74 - 74) =      8.89326  eV     1   --> A              
     e( 75 - 75) =      8.95725  eV     1   --> A              
     e( 76 - 76) =      9.00374  eV     1   --> A              
     e( 77 - 77) =      9.08314  eV     1   --> A              
     e( 78 - 78) =      9.16597  eV     1   --> A              
     e( 79 - 79) =      9.28578  eV     1   --> A              
     e( 80 - 80) =      9.43761  eV     1   --> A              
     e( 81 - 81) =      9.44971  eV     1   --> A              
     e( 82 - 82) =      9.55403  eV     1   --> A              
     e( 83 - 83) =      9.75991  eV     1   --> A              

 **************************************************************************

 **************************************************************************

                    xk=(   0.88235,   0.51157,  -0.07000  )

     Band symmetry, C_1 (1)     point group:

     e(  1 -  1) =    -73.96621  eV     1   --> A              
     e(  2 -  2) =    -69.36064  eV     1   --> A              
     e(  3 -  3) =    -42.72022  eV     1   --> A              
     e(  4 -  4) =    -42.71498  eV     1   --> A              
     e(  5 -  5) =    -42.71373  eV     1   --> A              
     e(  6 -  6) =    -38.20209  eV     1   --> A              
     e(  7 -  7) =    -38.19767  eV     1   --> A              
     e(  8 -  8) =    -38.18294  eV     1   --> A              
     e(  9 - 10) =    -15.56998  eV     2   -->   2 A              
     e( 11 - 12) =    -15.56855  eV     2   -->   2 A              
     e( 13 - 14) =    -15.56658  eV     2   -->   2 A              
     e( 15 - 16) =    -15.56366  eV     2   -->   2 A              
     e( 17 - 17) =    -15.55574  eV     1   --> A              
     e( 18 - 18) =    -15.55561  eV     1   --> A              
     e( 19 - 20) =    -15.55335  eV     2   -->   2 A              
     e( 21 - 21) =    -15.55321  eV     1   --> A              
     e( 22 - 22) =    -15.55309  eV     1   --> A              
     e( 23 - 24) =    -15.55211  eV     2   -->   2 A              
     e( 25 - 26) =    -15.54829  eV     2   -->   2 A              
     e( 27 - 28) =    -15.54707  eV     2   -->   2 A              
     e( 29 - 29) =     -5.43705  eV     1   --> A              
     e( 30 - 30) =     -5.40859  eV     1   --> A              
     e( 31 - 31) =     -5.24504  eV     1   --> A              
     e( 32 - 32) =     -5.20198  eV     1   --> A              
     e( 33 - 33) =     -3.72579  eV     1   --> A              
     e( 34 - 34) =     -3.52129  eV     1   --> A              
     e( 35 - 35) =     -3.29435  eV     1   --> A              
     e( 36 - 36) =     -3.03231  eV     1   --> A              
     e( 37 - 37) =     -1.63492  eV     1   --> A              
     e( 38 - 38) =     -1.35859  eV     1   --> A              
     e( 39 - 39) =     -1.05584  eV     1   --> A              
     e( 40 - 40) =     -0.85424  eV     1   --> A              
     e( 41 - 41) =      3.64370  eV     1   --> A              
     e( 42 - 42) =      4.05017  eV     1   --> A              
     e( 43 - 43) =      4.12330  eV     1   --> A              
     e( 44 - 44) =      4.28452  eV     1   --> A              
     e( 45 - 45) =      4.48809  eV     1   --> A              
     e( 46 - 46) =      4.55952  eV     1   --> A              
     e( 47 - 47) =      4.77733  eV     1   --> A              
     e( 48 - 48) =      4.81710  eV     1   --> A              
     e( 49 - 49) =      5.02523  eV     1   --> A              
     e( 50 - 50) =      5.08787  eV     1   --> A              
     e( 51 - 51) =      5.32799  eV     1   --> A              
     e( 52 - 52) =      5.48590  eV     1   --> A              
     e( 53 - 53) =      5.49158  eV     1   --> A              
     e( 54 - 54) =      5.55306  eV     1   --> A              
     e( 55 - 55) =      5.56860  eV     1   --> A              
     e( 56 - 56) =      5.73973  eV     1   --> A              
     e( 57 - 57) =      5.84524  eV     1   --> A              
     e( 58 - 58) =      5.97736  eV     1   --> A              
     e( 59 - 59) =      6.18468  eV     1   --> A              
     e( 60 - 60) =      6.24752  eV     1   --> A              
     e( 61 - 61) =      6.50423  eV     1   --> A              
     e( 62 - 62) =      6.69643  eV     1   --> A              
     e( 63 - 63) =      6.77456  eV     1   --> A              
     e( 64 - 64) =      6.87074  eV     1   --> A              
     e( 65 - 65) =      6.90492  eV     1   --> A              
     e( 66 - 66) =      7.00140  eV     1   --> A              
     e( 67 - 67) =      7.38275  eV     1   --> A              
     e( 68 - 68) =      7.46268  eV     1   --> A              
     e( 69 - 69) =      7.48693  eV     1   --> A              
     e( 70 - 70) =      8.47092  eV     1   --> A              
     e( 71 - 71) =      8.73932  eV     1   --> A              
     e( 72 - 72) =      8.78481  eV     1   --> A              
     e( 73 - 73) =      8.81375  eV     1   --> A              
     e( 74 - 74) =      8.91044  eV     1   --> A              
     e( 75 - 75) =      8.97775  eV     1   --> A              
     e( 76 - 76) =      9.01646  eV     1   --> A              
     e( 77 - 77) =      9.13393  eV     1   --> A              
     e( 78 - 78) =      9.24369  eV     1   --> A              
     e( 79 - 79) =      9.42679  eV     1   --> A              
     e( 80 - 80) =      9.55657  eV     1   --> A              
     e( 81 - 81) =      9.56423  eV     1   --> A              
     e( 82 - 82) =      9.57820  eV     1   --> A              
     e( 83 - 83) =      9.78116  eV     1   --> A              

 **************************************************************************

 **************************************************************************

                    xk=(   1.00841,   0.58465,  -0.08000  )

     Band symmetry, C_1 (1)     point group:

     e(  1 -  1) =    -73.96621  eV     1   --> A              
     e(  2 -  2) =    -69.36064  eV     1   --> A              
     e(  3 -  3) =    -42.72025  eV     1   --> A              
     e(  4 -  4) =    -42.71499  eV     1   --> A              
     e(  5 -  5) =    -42.71373  eV     1   --> A              
     e(  6 -  6) =    -38.20213  eV     1   --> A              
     e(  7 -  7) =    -38.19769  eV     1   --> A              
     e(  8 -  8) =    -38.18293  eV     1   --> A              
     e(  9 - 10) =    -15.57054  eV     2   -->   2 A              
     e( 11 - 12) =    -15.56911  eV     2   -->   2 A              
     e( 13 - 14) =    -15.56614  eV     2   -->   2 A              
     e( 15 - 16) =    -15.56324  eV     2   -->   2 A              
     e( 17 - 17) =    -15.55536  eV     1   --> A              
     e( 18 - 18) =    -15.55521  eV     1   --> A              
     e( 19 - 20) =    -15.55357  eV     2   -->   2 A              
     e( 21 - 21) =    -15.55284  eV     1   --> A              
     e( 22 - 22) =    -15.55269  eV     1   --> A              
     e( 23 - 24) =    -15.55193  eV     2   -->   2 A              
     e( 25 - 26) =    -15.54846  eV     2   -->   2 A              
     e( 27 - 28) =    -15.54688  eV     2   -->   2 A              
     e( 29 - 29) =     -5.38523  eV     1   --> A              
     e( 30 - 30) =     -5.35709  eV     1   --> A              
     e( 31 - 31) =     -5.19460  eV     1   --> A              
     e( 32 - 32) =     -5.15205  eV     1   --> A              
     e( 33 - 33) =     -3.69004  eV     1   --> A              
     e( 34 - 34) =     -3.48861  eV     1   --> A              
     e( 35 - 35) =     -3.26851  eV     1   --> A              
     e( 36 - 36) =     -3.01184  eV     1   --> A              
     e( 37 - 37) =     -1.65562  eV     1   --> A              
     e( 38 - 38) =     -1.39662  eV     1   --> A              
     e( 39 - 39) =     -1.10700  eV     1   --> A              
     e( 40 - 40) =     -0.92283  eV     1   --> A              
     e( 41 - 41) =      3.61096  eV     1   --> A              
     e( 42 - 42) =      3.97586  eV     1   --> A              
     e( 43 - 43) =      4.08233  eV     1   --> A              
     e( 44 - 44) =      4.29043  eV     1   --> A              
     e( 45 - 45) =      4.33821  eV     1   --> A              
     e( 46 - 46) =      4.44886  eV     1   --> A              
     e( 47 - 47) =      4.71757  eV     1   --> A              
     e( 48 - 48) =      4.80516  eV     1   --> A              
     e( 49 - 49) =      4.88771  eV     1   --> A              
     e( 50 - 50) =      5.04468  eV     1   --> A              
     e( 51 - 51) =      5.28037  eV     1   --> A              
     e( 52 - 52) =      5.34827  eV     1   --> A              
     e( 53 - 53) =      5.40748  eV     1   --> A              
     e( 54 - 54) =      5.40910  eV     1   --> A              
     e( 55 - 55) =      5.47363  eV     1   --> A              
     e( 56 - 56) =      5.65991  eV     1   --> A              
     e( 57 - 57) =      5.78075  eV     1   --> A              
     e( 58 - 58) =      5.90926  eV     1   --> A              
     e( 59 - 59) =      6.06759  eV     1   --> A              
     e( 60 - 60) =      6.22678  eV     1   --> A              
     e( 61 - 61) =      6.46264  eV     1   --> A              
     e( 62 - 62) =      6.66015  eV     1   --> A              
     e( 63 - 63) =      6.74392  eV     1   --> A              
     e( 64 - 64) =      6.82016  eV     1   --> A              
     e( 65 - 65) =      6.84993  eV     1   --> A              
     e( 66 - 66) =      6.86448  eV     1   --> A              
     e( 67 - 67) =      7.31427  eV     1   --> A              
     e( 68 - 68) =      7.47214  eV     1   --> A              
     e( 69 - 69) =      7.48431  eV     1   --> A              
     e( 70 - 70) =      8.52966  eV     1   --> A              
     e( 71 - 71) =      8.73135  eV     1   --> A              
     e( 72 - 72) =      8.80039  eV     1   --> A              
     e( 73 - 73) =      8.81511  eV     1   --> A              
     e( 74 - 74) =      8.92703  eV     1   --> A              
     e( 75 - 75) =      8.96075  eV     1   --> A              
     e( 76 - 76) =      9.03408  eV     1   --> A              
     e( 77 - 77) =      9.21326  eV     1   --> A              
     e( 78 - 78) =      9.33928  eV     1   --> A              
     e( 79 - 79) =      9.49987  eV     1   --> A              
     e( 80 - 80) =      9.55532  eV     1   --> A              
     e( 81 - 81) =      9.69841  eV     1   --> A              
     e( 82 - 82) =      9.75362  eV     1   --> A              
     e( 83 - 83) =      9.78478  eV     1   --> A              

 **************************************************************************

 **************************************************************************

                    xk=(   1.13446,   0.65773,  -0.09000  )

     Band symmetry, C_1 (1)     point group:

     e(  1 -  1) =    -73.96620  eV     1   --> A              
     e(  2 -  2) =    -69.36063  eV     1   --> A              
     e(  3 -  3) =    -42.72029  eV     1   --> A              
     e(  4 -  4) =    -42.71499  eV     1   --> A              
     e(  5 -  5) =    -42.71372  eV     1   --> A              
     e(  6 -  6) =    -38.20218  eV     1   --> A              
     e(  7 -  7) =    -38.19770  eV     1   --> A              
     e(  8 -  8) =    -38.18292  eV     1   --> A              
     e(  9 - 10) =    -15.57120  eV     2   -->   2 A              
     e( 11 - 12) =    -15.56978  eV     2   -->   2 A              
     e( 13 - 14) =    -15.56564  eV     2   -->   2 A              
     e( 15 - 16) =    -15.56276  eV     2   -->   2 A              
     e( 17 - 17) =    -15.55499  eV     1   --> A              
     e( 18 - 18) =    -15.55485  eV     1   --> A              
     e( 19 - 20) =    -15.55362  eV     2   -->   2 A              
     e( 21 - 21) =    -15.55242  eV     1   --> A              
     e( 22 - 22) =    -15.55228  eV     1   --> A              
     e( 23 - 23) =    -15.55164  eV     1   --> A              
     e( 24 - 24) =    -15.55150  eV     1   --> A              
     e( 25 - 26) =    -15.54854  eV     2   -->   2 A              
     e( 27 - 27) =    -15.54659  eV     1   --> A              
     e( 28 - 28) =    -15.54645  eV     1   --> A              
     e( 29 - 29) =     -5.32687  eV     1   --> A              
     e( 30 - 30) =     -5.29908  eV     1   --> A              
     e( 31 - 31) =     -5.13788  eV     1   --> A              
     e( 32 - 32) =     -5.09592  eV     1   --> A              
     e( 33 - 33) =     -3.65057  eV     1   --> A              
     e( 34 - 34) =     -3.45271  eV     1   --> A              
     e( 35 - 35) =     -3.24046  eV     1   --> A              
     e( 36 - 36) =     -2.98998  eV     1   --> A              
     e( 37 - 37) =     -1.68135  eV     1   --> A              
     e( 38 - 38) =     -1.44138  eV     1   --> A              
     e( 39 - 39) =     -1.16574  eV     1   --> A              
     e( 40 - 40) =     -0.99987  eV     1   --> A              
     e( 41 - 41) =      3.56695  eV     1   --> A              
     e( 42 - 42) =      3.88347  eV     1   --> A              
     e( 43 - 43) =      4.02189  eV     1   --> A              
     e( 44 - 44) =      4.21121  eV     1   --> A              
     e( 45 - 45) =      4.29593  eV     1   --> A              
     e( 46 - 46) =      4.34970  eV     1   --> A              
     e( 47 - 47) =      4.63665  eV     1   --> A              
     e( 48 - 48) =      4.75854  eV     1   --> A              
     e( 49 - 49) =      4.79281  eV     1   --> A              
     e( 50 - 50) =      5.00001  eV     1   --> A              
     e( 51 - 51) =      5.17107  eV     1   --> A              
     e( 52 - 52) =      5.26718  eV     1   --> A              
     e( 53 - 53) =      5.29200  eV     1   --> A              
     e( 54 - 54) =      5.32601  eV     1   --> A              
     e( 55 - 55) =      5.39260  eV     1   --> A              
     e( 56 - 56) =      5.58069  eV     1   --> A              
     e( 57 - 57) =      5.71171  eV     1   --> A              
     e( 58 - 58) =      5.84534  eV     1   --> A              
     e( 59 - 59) =      5.93243  eV     1   --> A              
     e( 60 - 60) =      6.20563  eV     1   --> A              
     e( 61 - 61) =      6.41611  eV     1   --> A              
     e( 62 - 62) =      6.59951  eV     1   --> A              
     e( 63 - 63) =      6.69337  eV     1   --> A              
     e( 64 - 64) =      6.71152  eV     1   --> A              
     e( 65 - 65) =      6.78799  eV     1   --> A              
     e( 66 - 66) =      6.83076  eV     1   --> A              
     e( 67 - 67) =      7.22680  eV     1   --> A              
     e( 68 - 68) =      7.45093  eV     1   --> A              
     e( 69 - 69) =      7.47935  eV     1   --> A              
     e( 70 - 70) =      8.58486  eV     1   --> A              
     e( 71 - 71) =      8.72835  eV     1   --> A              
     e( 72 - 72) =      8.80852  eV     1   --> A              
     e( 73 - 73) =      8.83586  eV     1   --> A              
     e( 74 - 74) =      8.94594  eV     1   --> A              
     e( 75 - 75) =      8.94815  eV     1   --> A              
     e( 76 - 76) =      9.07485  eV     1   --> A              
     e( 77 - 77) =      9.30923  eV     1   --> A              
     e( 78 - 78) =      9.41577  eV     1   --> A              
     e( 79 - 79) =      9.54443  eV     1   --> A              
     e( 80 - 80) =      9.55342  eV     1   --> A              
     e( 81 - 81) =      9.71710  eV     1   --> A              
     e( 82 - 82) =      9.81441  eV     1   --> A              
     e( 83 - 83) =      9.99947  eV     1   --> A              

 **************************************************************************

 **************************************************************************

                    xk=(   1.26051,   0.73081,  -0.10000  )

     Band symmetry, C_1 (1)     point group:

     e(  1 -  1) =    -73.96620  eV     1   --> A              
     e(  2 -  2) =    -69.36063  eV     1   --> A              
     e(  3 -  3) =    -42.72032  eV     1   --> A              
     e(  4 -  4) =    -42.71500  eV     1   --> A              
     e(  5 -  5) =    -42.71372  eV     1   --> A              
     e(  6 -  6) =    -38.20223  eV     1   --> A              
     e(  7 -  7) =    -38.19771  eV     1   --> A              
     e(  8 -  8) =    -38.18291  eV     1   --> A              
     e(  9 -  9) =    -15.57184  eV     1   --> A              
     e( 10 - 10) =    -15.57171  eV     1   --> A              
     e( 11 - 11) =    -15.57043  eV     1   --> A              
     e( 12 - 12) =    -15.57030  eV     1   --> A              
     e( 13 - 14) =    -15.56524  eV     2   -->   2 A              
     e( 15 - 16) =    -15.56238  eV     2   -->   2 A              
     e( 17 - 18) =    -15.55487  eV     2   -->   2 A              
     e( 19 - 20) =    -15.55342  eV     2   -->   2 A              
     e( 21 - 21) =    -15.55207  eV     1   --> A              
     e( 22 - 22) =    -15.55193  eV     1   --> A              
     e( 23 - 24) =    -15.55124  eV     2   -->   2 A              
     e( 25 - 26) =    -15.54860  eV     2   -->   2 A              
     e( 27 - 28) =    -15.54620  eV     2   -->   2 A              
     e( 29 - 29) =     -5.26212  eV     1   --> A              
     e( 30 - 30) =     -5.23475  eV     1   --> A              
     e( 31 - 31) =     -5.07507  eV     1   --> A              
     e( 32 - 32) =     -5.03379  eV     1   --> A              
     e( 33 - 33) =     -3.60780  eV     1   --> A              
     e( 34 - 34) =     -3.41411  eV     1   --> A              
     e( 35 - 35) =     -3.21066  eV     1   --> A              
     e( 36 - 36) =     -2.96732  eV     1   --> A              
     e( 37 - 37) =     -1.71267  eV     1   --> A              
     e( 38 - 38) =     -1.49341  eV     1   --> A              
     e( 39 - 39) =     -1.23180  eV     1   --> A              
     e( 40 - 40) =     -1.08492  eV     1   --> A              
     e( 41 - 41) =      3.51076  eV     1   --> A              
     e( 42 - 42) =      3.77556  eV     1   --> A              
     e( 43 - 43) =      3.93662  eV     1   --> A              
     e( 44 - 44) =      4.12612  eV     1   --> A              
     e( 45 - 45) =      4.23804  eV     1   --> A              
     e( 46 - 46) =      4.30054  eV     1   --> A              
     e( 47 - 47) =      4.54952  eV     1   --> A              
     e( 48 - 48) =      4.64427  eV     1   --> A              
     e( 49 - 49) =      4.78037  eV     1   --> A              
     e( 50 - 50) =      4.91734  eV     1   --> A              
     e( 51 - 51) =      5.06540  eV     1   --> A              
     e( 52 - 52) =      5.17303  eV     1   --> A              
     e( 53 - 53) =      5.24432  eV     1   --> A              
     e( 54 - 54) =      5.26735  eV     1   --> A              
     e( 55 - 55) =      5.31091  eV     1   --> A              
     e( 56 - 56) =      5.50398  eV     1   --> A              
     e( 57 - 57) =      5.63959  eV     1   --> A              
     e( 58 - 58) =      5.73588  eV     1   --> A              
     e( 59 - 59) =      5.85277  eV     1   --> A              
     e( 60 - 60) =      6.18486  eV     1   --> A              
     e( 61 - 61) =      6.31610  eV     1   --> A              
     e( 62 - 62) =      6.49718  eV     1   --> A              
     e( 63 - 63) =      6.60664  eV     1   --> A              
     e( 64 - 64) =      6.67294  eV     1   --> A              
     e( 65 - 65) =      6.72560  eV     1   --> A              
     e( 66 - 66) =      6.83474  eV     1   --> A              
     e( 67 - 67) =      7.12985  eV     1   --> A              
     e( 68 - 68) =      7.40157  eV     1   --> A              
     e( 69 - 69) =      7.47156  eV     1   --> A              
     e( 70 - 70) =      8.61414  eV     1   --> A              
     e( 71 - 71) =      8.72897  eV     1   --> A              
     e( 72 - 72) =      8.80621  eV     1   --> A              
     e( 73 - 73) =      8.84995  eV     1   --> A              
     e( 74 - 74) =      8.97319  eV     1   --> A              
     e( 75 - 75) =      8.98922  eV     1   --> A              
     e( 76 - 76) =      9.12676  eV     1   --> A              
     e( 77 - 77) =      9.41110  eV     1   --> A              
     e( 78 - 78) =      9.45796  eV     1   --> A              
     e( 79 - 79) =      9.53010  eV     1   --> A              
     e( 80 - 80) =      9.59956  eV     1   --> A              
     e( 81 - 81) =      9.65969  eV     1   --> A              
     e( 82 - 82) =      9.91915  eV     1   --> A              
     e( 83 - 83) =     10.21197  eV     1   --> A              

 **************************************************************************

 **************************************************************************

                    xk=(   1.38656,   0.80389,  -0.11000  )

     Band symmetry, C_1 (1)     point group:

     e(  1 -  1) =    -73.96620  eV     1   --> A              
     e(  2 -  2) =    -69.36063  eV     1   --> A              
     e(  3 -  3) =    -42.72036  eV     1   --> A              
     e(  4 -  4) =    -42.71501  eV     1   --> A              
     e(  5 -  5) =    -42.71372  eV     1   --> A              
     e(  6 -  6) =    -38.20229  eV     1   --> A              
     e(  7 -  7) =    -38.19772  eV     1   --> A              
     e(  8 -  8) =    -38.18290  eV     1   --> A              
     e(  9 - 10) =    -15.57249  eV     2   -->   2 A              
     e( 11 - 12) =    -15.57108  eV     2   -->   2 A              
     e( 13 - 14) =    -15.56485  eV     2   -->   2 A              
     e( 15 - 16) =    -15.56200  eV     2   -->   2 A              
     e( 17 - 18) =    -15.55502  eV     2   -->   2 A              
     e( 19 - 20) =    -15.55301  eV     2   -->   2 A              
     e( 21 - 21) =    -15.55187  eV     1   --> A              
     e( 22 - 22) =    -15.55173  eV     1   --> A              
     e( 23 - 23) =    -15.55085  eV     1   --> A              
     e( 24 - 24) =    -15.55075  eV     1   --> A              
     e( 25 - 26) =    -15.54850  eV     2   -->   2 A              
     e( 27 - 27) =    -15.54583  eV     1   --> A              
     e( 28 - 28) =    -15.54572  eV     1   --> A              
     e( 29 - 29) =     -5.19118  eV     1   --> A              
     e( 30 - 30) =     -5.16427  eV     1   --> A              
     e( 31 - 31) =     -5.00640  eV     1   --> A              
     e( 32 - 32) =     -4.96590  eV     1   --> A              
     e( 33 - 33) =     -3.56224  eV     1   --> A              
     e( 34 - 34) =     -3.37347  eV     1   --> A              
     e( 35 - 35) =     -3.17961  eV     1   --> A              
     e( 36 - 36) =     -2.94456  eV     1   --> A              
     e( 37 - 37) =     -1.75001  eV     1   --> A              
     e( 38 - 38) =     -1.55321  eV     1   --> A              
     e( 39 - 39) =     -1.30458  eV     1   --> A              
     e( 40 - 40) =     -1.17740  eV     1   --> A              
     e( 41 - 41) =      3.44325  eV     1   --> A              
     e( 42 - 42) =      3.65397  eV     1   --> A              
     e( 43 - 43) =      3.85206  eV     1   --> A              
     e( 44 - 44) =      4.06094  eV     1   --> A              
     e( 45 - 45) =      4.10587  eV     1   --> A              
     e( 46 - 46) =      4.30376  eV     1   --> A              
     e( 47 - 47) =      4.45475  eV     1   --> A              
     e( 48 - 48) =      4.55611  eV     1   --> A              
     e( 49 - 49) =      4.76814  eV     1   --> A              
     e( 50 - 50) =      4.79372  eV     1   --> A              
     e( 51 - 51) =      5.01832  eV     1   --> A              
     e( 52 - 52) =      5.09516  eV     1   --> A              
     e( 53 - 53) =      5.16560  eV     1   --> A              
     e( 54 - 54) =      5.22991  eV     1   --> A              
     e( 55 - 55) =      5.24857  eV     1   --> A              
     e( 56 - 56) =      5.43049  eV     1   --> A              
     e( 57 - 57) =      5.56647  eV     1   --> A              
     e( 58 - 58) =      5.61506  eV     1   --> A              
     e( 59 - 59) =      5.80633  eV     1   --> A              
     e( 60 - 60) =      6.16468  eV     1   --> A              
     e( 61 - 61) =      6.19359  eV     1   --> A              
     e( 62 - 62) =      6.32789  eV     1   --> A              
     e( 63 - 63) =      6.59462  eV     1   --> A              
     e( 64 - 64) =      6.62067  eV     1   --> A              
     e( 65 - 65) =      6.67223  eV     1   --> A              
     e( 66 - 66) =      6.82588  eV     1   --> A              
     e( 67 - 67) =      7.03623  eV     1   --> A              
     e( 68 - 68) =      7.34027  eV     1   --> A              
     e( 69 - 69) =      7.46117  eV     1   --> A              
     e( 70 - 70) =      8.61967  eV     1   --> A              
     e( 71 - 71) =      8.73065  eV     1   --> A              
     e( 72 - 72) =      8.79358  eV     1   --> A              
     e( 73 - 73) =      8.86030  eV     1   --> A              
     e( 74 - 74) =      9.00174  eV     1   --> A              
     e( 75 - 75) =      9.06295  eV     1   --> A              
     e( 76 - 76) =      9.18134  eV     1   --> A              
     e( 77 - 77) =      9.46373  eV     1   --> A              
     e( 78 - 78) =      9.48712  eV     1   --> A              
     e( 79 - 79) =      9.54018  eV     1   --> A              
     e( 80 - 80) =      9.59167  eV     1   --> A              
     e( 81 - 81) =      9.66580  eV     1   --> A              
     e( 82 - 82) =     10.00727  eV     1   --> A              
     e( 83 - 83) =     10.31591  eV     1   --> A              

 **************************************************************************

 **************************************************************************

                    xk=(   1.51261,   0.87697,  -0.12000  )

     Band symmetry, C_1 (1)     point group:

     e(  1 -  1) =    -73.96620  eV     1   --> A              
     e(  2 -  2) =    -69.36063  eV     1   --> A              
     e(  3 -  3) =    -42.72039  eV     1   --> A              
     e(  4 -  4) =    -42.71502  eV     1   --> A              
     e(  5 -  5) =    -42.71372  eV     1   --> A              
     e(  6 -  6) =    -38.20234  eV     1   --> A              
     e(  7 -  7) =    -38.19774  eV     1   --> A              
     e(  8 -  8) =    -38.18289  eV     1   --> A              
     e(  9 -  9) =    -15.57323  eV     1   --> A              
     e( 10 - 10) =    -15.57311  eV     1   --> A              
     e( 11 - 11) =    -15.57181  eV     1   --> A              
     e( 12 - 12) =    -15.57168  eV     1   --> A              
     e( 13 - 13) =    -15.56449  eV     1   --> A              
     e( 14 - 14) =    -15.56436  eV     1   --> A              
     e( 15 - 15) =    -15.56164  eV     1   --> A              
     e( 16 - 16) =    -15.56151  eV     1   --> A              
     e( 17 - 18) =    -15.55530  eV     2   -->   2 A              
     e( 19 - 20) =    -15.55247  eV     2   -->   2 A              
     e( 21 - 21) =    -15.55180  eV     1   --> A              
     e( 22 - 22) =    -15.55166  eV     1   --> A              
     e( 23 - 24) =    -15.55038  eV     2   -->   2 A              
     e( 25 - 26) =    -15.54827  eV     2   -->   2 A              
     e( 27 - 28) =    -15.54538  eV     2   -->   2 A              
     e( 29 - 29) =     -5.11428  eV     1   --> A              
     e( 30 - 30) =     -5.08790  eV     1   --> A              
     e( 31 - 31) =     -4.93215  eV     1   --> A              
     e( 32 - 32) =     -4.89254  eV     1   --> A              
     e( 33 - 33) =     -3.51448  eV     1   --> A              
     e( 34 - 34) =     -3.33160  eV     1   --> A              
     e( 35 - 35) =     -3.14782  eV     1   --> A              
     e( 36 - 36) =     -2.92258  eV     1   --> A              
     e( 37 - 37) =     -1.79355  eV     1   --> A              
     e( 38 - 38) =     -1.62120  eV     1   --> A              
     e( 39 - 39) =     -1.38322  eV     1   --> A              
     e( 40 - 40) =     -1.27655  eV     1   --> A              
     e( 41 - 41) =      3.36678  eV     1   --> A              
     e( 42 - 42) =      3.52927  eV     1   --> A              
     e( 43 - 43) =      3.78089  eV     1   --> A              
     e( 44 - 44) =      3.93982  eV     1   --> A              
     e( 45 - 45) =      4.01682  eV     1   --> A              
     e( 46 - 46) =      4.30506  eV     1   --> A              
     e( 47 - 47) =      4.33299  eV     1   --> A              
     e( 48 - 48) =      4.50135  eV     1   --> A              
     e( 49 - 49) =      4.68841  eV     1   --> A              
     e( 50 - 50) =      4.75617  eV     1   --> A              
     e( 51 - 51) =      4.99008  eV     1   --> A              
     e( 52 - 52) =      5.03108  eV     1   --> A              
     e( 53 - 53) =      5.09128  eV     1   --> A              
     e( 54 - 54) =      5.15100  eV     1   --> A              
     e( 55 - 55) =      5.20837  eV     1   --> A              
     e( 56 - 56) =      5.36058  eV     1   --> A              
     e( 57 - 57) =      5.49434  eV     1   --> A              
     e( 58 - 58) =      5.53215  eV     1   --> A              
     e( 59 - 59) =      5.75725  eV     1   --> A              
     e( 60 - 60) =      6.06249  eV     1   --> A              
     e( 61 - 61) =      6.14511  eV     1   --> A              
     e( 62 - 62) =      6.17726  eV     1   --> A              
     e( 63 - 63) =      6.55471  eV     1   --> A              
     e( 64 - 64) =      6.55592  eV     1   --> A              
     e( 65 - 65) =      6.62861  eV     1   --> A              
     e( 66 - 66) =      6.79306  eV     1   --> A              
     e( 67 - 67) =      6.96748  eV     1   --> A              
     e( 68 - 68) =      7.28339  eV     1   --> A              
     e( 69 - 69) =      7.44881  eV     1   --> A              
     e( 70 - 70) =      8.61109  eV     1   --> A              
     e( 71 - 71) =      8.72613  eV     1   --> A              
     e( 72 - 72) =      8.79311  eV     1   --> A              
     e( 73 - 73) =      8.86884  eV     1   --> A              
     e( 74 - 74) =      9.03078  eV     1   --> A              
     e( 75 - 75) =      9.12088  eV     1   --> A              
     e( 76 - 76) =      9.20368  eV     1   --> A              
     e( 77 - 77) =      9.44551  eV     1   --> A              
     e( 78 - 78) =      9.47793  eV     1   --> A              
     e( 79 - 79) =      9.59904  eV     1   --> A              
     e( 80 - 80) =      9.63192  eV     1   --> A              
     e( 81 - 81) =      9.70699  eV     1   --> A              
     e( 82 - 82) =     10.07397  eV     1   --> A              
     e( 83 - 83) =     10.25161  eV     1   --> A              

 **************************************************************************

 **************************************************************************

                    xk=(   1.63866,   0.95005,  -0.13000  )

     Band symmetry, C_1 (1)     point group:

     e(  1 -  1) =    -73.96620  eV     1   --> A              
     e(  2 -  2) =    -69.36063  eV     1   --> A              
     e(  3 -  3) =    -42.72043  eV     1   --> A              
     e(  4 -  4) =    -42.71502  eV     1   --> A              
     e(  5 -  5) =    -42.71371  eV     1   --> A              
     e(  6 -  6) =    -38.20240  eV     1   --> A              
     e(  7 -  7) =    -38.19775  eV     1   --> A              
     e(  8 -  8) =    -38.18288  eV     1   --> A              
     e(  9 -  9) =    -15.57402  eV     1   --> A              
     e( 10 - 10) =    -15.57392  eV     1   --> A              
     e( 11 - 11) =    -15.57260  eV     1   --> A              
     e( 12 - 12) =    -15.57249  eV     1   --> A              
     e( 13 - 13) =    -15.56419  eV     1   --> A              
     e( 14 - 14) =    -15.56403  eV     1   --> A              
     e( 15 - 15) =    -15.56133  eV     1   --> A              
     e( 16 - 16) =    -15.56118  eV     1   --> A              
     e( 17 - 17) =    -15.55558  eV     1   --> A              
     e( 18 - 18) =    -15.55547  eV     1   --> A              
     e( 19 - 21) =    -15.55189  eV     3   -->   3 A              
     e( 22 - 22) =    -15.55164  eV     1   --> A              
     e( 23 - 24) =    -15.54985  eV     2   -->   2 A              
     e( 25 - 26) =    -15.54796  eV     2   -->   2 A              
     e( 27 - 28) =    -15.54486  eV     2   -->   2 A              
     e( 29 - 29) =     -5.03169  eV     1   --> A              
     e( 30 - 30) =     -5.00591  eV     1   --> A              
     e( 31 - 31) =     -4.85266  eV     1   --> A              
     e( 32 - 32) =     -4.81408  eV     1   --> A              
     e( 33 - 33) =     -3.46520  eV     1   --> A              
     e( 34 - 34) =     -3.28958  eV     1   --> A              
     e( 35 - 35) =     -3.11583  eV     1   --> A              
     e( 36 - 36) =     -2.90244  eV     1   --> A              
     e( 37 - 37) =     -1.84317  eV     1   --> A              
     e( 38 - 38) =     -1.69750  eV     1   --> A              
     e( 39 - 39) =     -1.46660  eV     1   --> A              
     e( 40 - 40) =     -1.38140  eV     1   --> A              
     e( 41 - 41) =      3.28217  eV     1   --> A              
     e( 42 - 42) =      3.41586  eV     1   --> A              
     e( 43 - 43) =      3.71449  eV     1   --> A              
     e( 44 - 44) =      3.78528  eV     1   --> A              
     e( 45 - 45) =      3.95620  eV     1   --> A              
     e( 46 - 46) =      4.19388  eV     1   --> A              
     e( 47 - 47) =      4.30399  eV     1   --> A              
     e( 48 - 48) =      4.45741  eV     1   --> A              
     e( 49 - 49) =      4.63048  eV     1   --> A              
     e( 50 - 50) =      4.74413  eV     1   --> A              
     e( 51 - 51) =      4.94487  eV     1   --> A              
     e( 52 - 52) =      4.99246  eV     1   --> A              
     e( 53 - 53) =      5.02292  eV     1   --> A              
     e( 54 - 54) =      5.07537  eV     1   --> A              
     e( 55 - 55) =      5.13711  eV     1   --> A              
     e( 56 - 56) =      5.29451  eV     1   --> A              
     e( 57 - 57) =      5.42485  eV     1   --> A              
     e( 58 - 58) =      5.49873  eV     1   --> A              
     e( 59 - 59) =      5.69351  eV     1   --> A              
     e( 60 - 60) =      5.92429  eV     1   --> A              
     e( 61 - 61) =      6.06689  eV     1   --> A              
     e( 62 - 62) =      6.12603  eV     1   --> A              
     e( 63 - 63) =      6.47419  eV     1   --> A              
     e( 64 - 64) =      6.48761  eV     1   --> A              
     e( 65 - 65) =      6.58771  eV     1   --> A              
     e( 66 - 66) =      6.72452  eV     1   --> A              
     e( 67 - 67) =      6.94013  eV     1   --> A              
     e( 68 - 68) =      7.23999  eV     1   --> A              
     e( 69 - 69) =      7.43521  eV     1   --> A              
     e( 70 - 70) =      8.59575  eV     1   --> A              
     e( 71 - 71) =      8.71825  eV     1   --> A              
     e( 72 - 72) =      8.80140  eV     1   --> A              
     e( 73 - 73) =      8.87658  eV     1   --> A              
     e( 74 - 74) =      9.05831  eV     1   --> A              
     e( 75 - 75) =      9.11896  eV     1   --> A              
     e( 76 - 76) =      9.20671  eV     1   --> A              
     e( 77 - 77) =      9.41841  eV     1   --> A              
     e( 78 - 78) =      9.45732  eV     1   --> A              
     e( 79 - 79) =      9.65687  eV     1   --> A              
     e( 80 - 80) =      9.73047  eV     1   --> A              
     e( 81 - 81) =      9.75701  eV     1   --> A              
     e( 82 - 82) =     10.11726  eV     1   --> A              
     e( 83 - 83) =     10.15651  eV     1   --> A              

 **************************************************************************

 **************************************************************************

                    xk=(   1.76471,   1.02313,  -0.14000  )

     Band symmetry, C_1 (1)     point group:

     e(  1 -  1) =    -73.96620  eV     1   --> A              
     e(  2 -  2) =    -69.36063  eV     1   --> A              
     e(  3 -  3) =    -42.72047  eV     1   --> A              
     e(  4 -  4) =    -42.71503  eV     1   --> A              
     e(  5 -  5) =    -42.71371  eV     1   --> A              
     e(  6 -  6) =    -38.20246  eV     1   --> A              
     e(  7 -  7) =    -38.19777  eV     1   --> A              
     e(  8 -  8) =    -38.18287  eV     1   --> A              
     e(  9 -  9) =    -15.57479  eV     1   --> A              
     e( 10 - 10) =    -15.57469  eV     1   --> A              
     e( 11 - 11) =    -15.57336  eV     1   --> A              
     e( 12 - 12) =    -15.57325  eV     1   --> A              
     e( 13 - 13) =    -15.56385  eV     1   --> A              
     e( 14 - 14) =    -15.56372  eV     1   --> A              
     e( 15 - 15) =    -15.56098  eV     1   --> A              
     e( 16 - 16) =    -15.56085  eV     1   --> A              
     e( 17 - 17) =    -15.55590  eV     1   --> A              
     e( 18 - 18) =    -15.55578  eV     1   --> A              
     e( 19 - 19) =    -15.55194  eV     1   --> A              
     e( 20 - 20) =    -15.55182  eV     1   --> A              
     e( 21 - 21) =    -15.55129  eV     1   --> A              
     e( 22 - 22) =    -15.55117  eV     1   --> A              
     e( 23 - 24) =    -15.54928  eV     2   -->   2 A              
     e( 25 - 25) =    -15.54756  eV     1   --> A              
     e( 26 - 26) =    -15.54744  eV     1   --> A              
     e( 27 - 28) =    -15.54433  eV     2   -->   2 A              
     e( 29 - 29) =     -4.94376  eV     1   --> A              
     e( 30 - 30) =     -4.91867  eV     1   --> A              
     e( 31 - 31) =     -4.76836  eV     1   --> A              
     e( 32 - 32) =     -4.73097  eV     1   --> A              
     e( 33 - 33) =     -3.41522  eV     1   --> A              
     e( 34 - 34) =     -3.24881  eV     1   --> A              
     e( 35 - 35) =     -3.08408  eV     1   --> A              
     e( 36 - 36) =     -2.88544  eV     1   --> A              
     e( 37 - 37) =     -1.89835  eV     1   --> A              
     e( 38 - 38) =     -1.78181  eV     1   --> A              
     e( 39 - 39) =     -1.55348  eV     1   --> A              
     e( 40 - 40) =     -1.49073  eV     1   --> A              
     e( 41 - 41) =      3.18930  eV     1   --> A              
     e( 42 - 42) =      3.32247  eV     1   --> A              
     e( 43 - 43) =      3.62264  eV     1   --> A              
     e( 44 - 44) =      3.65568  eV     1   --> A              
     e( 45 - 45) =      3.89563  eV     1   --> A              
     e( 46 - 46) =      4.05272  eV     1   --> A              
     e( 47 - 47) =      4.30032  eV     1   --> A              
     e( 48 - 48) =      4.42218  eV     1   --> A              
     e( 49 - 49) =      4.61222  eV     1   --> A              
     e( 50 - 50) =      4.73083  eV     1   --> A              
     e( 51 - 51) =      4.87303  eV     1   --> A              
     e( 52 - 52) =      4.96251  eV     1   --> A              
     e( 53 - 53) =      4.97690  eV     1   --> A              
     e( 54 - 54) =      5.00399  eV     1   --> A              
     e( 55 - 55) =      5.05499  eV     1   --> A              
     e( 56 - 56) =      5.23263  eV     1   --> A              
     e( 57 - 57) =      5.35930  eV     1   --> A              
     e( 58 - 58) =      5.48516  eV     1   --> A              
     e( 59 - 59) =      5.61280  eV     1   --> A              
     e( 60 - 60) =      5.79906  eV     1   --> A              
     e( 61 - 61) =      5.99621  eV     1   --> A              
     e( 62 - 62) =      6.10727  eV     1   --> A              
     e( 63 - 63) =      6.36221  eV     1   --> A              
     e( 64 - 64) =      6.42019  eV     1   --> A              
     e( 65 - 65) =      6.54704  eV     1   --> A              
     e( 66 - 66) =      6.63481  eV     1   --> A              
     e( 67 - 67) =      6.93472  eV     1   --> A              
     e( 68 - 68) =      7.21096  eV     1   --> A              
     e( 69 - 69) =      7.42108  eV     1   --> A              
[...]
     e( 35 - 35) =     -3.37266  eV     1   --> A              
     e( 36 - 36) =     -3.09555  eV     1   --> A              
     e( 37 - 37) =     -1.58805  eV     1   --> A              
     e( 38 - 38) =     -1.25892  eV     1   --> A              
     e( 39 - 39) =     -0.91853  eV     1   --> A              
     e( 40 - 40) =     -0.65887  eV     1   --> A              
     e( 41 - 41) =      3.69716  eV     1   --> A              
     e( 42 - 42) =      4.19339  eV     1   --> A              
     e( 43 - 43) =      4.23964  eV     1   --> A              
     e( 44 - 44) =      4.26304  eV     1   --> A              
     e( 45 - 45) =      4.85131  eV     1   --> A              
     e( 46 - 46) =      4.85491  eV     1   --> A              
     e( 47 - 47) =      5.02366  eV     1   --> A              
     e( 48 - 48) =      5.12415  eV     1   --> A              
     e( 49 - 49) =      5.30378  eV     1   --> A              
     e( 50 - 50) =      5.69196  eV     1   --> A              
     e( 51 - 51) =      5.77869  eV     1   --> A              
     e( 52 - 52) =      5.78308  eV     1   --> A              
     e( 53 - 53) =      5.86170  eV     1   --> A              
     e( 54 - 54) =      5.89563  eV     1   --> A              
     e( 55 - 55) =      5.95301  eV     1   --> A              
     e( 56 - 56) =      6.03285  eV     1   --> A              
     e( 57 - 57) =      6.11528  eV     1   --> A              
     e( 58 - 58) =      6.18148  eV     1   --> A              
     e( 59 - 59) =      6.39495  eV     1   --> A              
     e( 60 - 60) =      6.49767  eV     1   --> A              
     e( 61 - 61) =      6.70707  eV     1   --> A              
     e( 62 - 62) =      6.79246  eV     1   --> A              
     e( 63 - 63) =      6.80691  eV     1   --> A              
     e( 64 - 64) =      6.93104  eV     1   --> A              
     e( 65 - 65) =      7.05312  eV     1   --> A              
     e( 66 - 66) =      7.28252  eV     1   --> A              
     e( 67 - 67) =      7.39914  eV     1   --> A              
     e( 68 - 68) =      7.59663  eV     1   --> A              
     e( 69 - 69) =      7.66394  eV     1   --> A              
     e( 70 - 70) =      8.47516  eV     1   --> A              
     e( 71 - 71) =      8.57485  eV     1   --> A              
     e( 72 - 72) =      8.62404  eV     1   --> A              
     e( 73 - 73) =      8.69141  eV     1   --> A              
     e( 74 - 74) =      8.81156  eV     1   --> A              
     e( 75 - 75) =      8.85142  eV     1   --> A              
     e( 76 - 76) =      8.91494  eV     1   --> A              
     e( 77 - 77) =      8.91947  eV     1   --> A              
     e( 78 - 78) =      9.06723  eV     1   --> A              
     e( 79 - 79) =      9.11111  eV     1   --> A              
     e( 80 - 80) =      9.12893  eV     1   --> A              
     e( 81 - 81) =      9.21058  eV     1   --> A              
     e( 82 - 82) =      9.33405  eV     1   --> A              
     e( 83 - 83) =      9.40050  eV     1   --> A              

 **************************************************************************

 **************************************************************************

                    xk=(   0.12526,   0.21878,  -0.02000  )

     Band symmetry, C_1 (1)     point group:

     e(  1 -  1) =    -73.96621  eV     1   --> A              
     e(  2 -  2) =    -69.36064  eV     1   --> A              
     e(  3 -  3) =    -42.72013  eV     1   --> A              
     e(  4 -  4) =    -42.71496  eV     1   --> A              
     e(  5 -  5) =    -42.71374  eV     1   --> A              
     e(  6 -  6) =    -38.20194  eV     1   --> A              
     e(  7 -  7) =    -38.19764  eV     1   --> A              
     e(  8 -  8) =    -38.18296  eV     1   --> A              
     e(  9 - 10) =    -15.56850  eV     2   -->   2 A              
     e( 11 - 12) =    -15.56818  eV     2   -->   2 A              
     e( 13 - 14) =    -15.56689  eV     2   -->   2 A              
     e( 15 - 16) =    -15.56524  eV     2   -->   2 A              
     e( 17 - 17) =    -15.55737  eV     1   --> A              
     e( 18 - 18) =    -15.55711  eV     1   --> A              
     e( 19 - 19) =    -15.55484  eV     1   --> A              
     e( 20 - 20) =    -15.55455  eV     1   --> A              
     e( 21 - 22) =    -15.55293  eV     2   -->   2 A              
     e( 23 - 24) =    -15.55243  eV     2   -->   2 A              
     e( 25 - 26) =    -15.54799  eV     2   -->   2 A              
     e( 27 - 28) =    -15.54744  eV     2   -->   2 A              
     e( 29 - 29) =     -5.59774  eV     1   --> A              
     e( 30 - 30) =     -5.56835  eV     1   --> A              
     e( 31 - 31) =     -5.40186  eV     1   --> A              
     e( 32 - 32) =     -5.35726  eV     1   --> A              
     e( 33 - 33) =     -3.84054  eV     1   --> A              
     e( 34 - 34) =     -3.62686  eV     1   --> A              
     e( 35 - 35) =     -3.37995  eV     1   --> A              
     e( 36 - 36) =     -3.10157  eV     1   --> A              
     e( 37 - 37) =     -1.58474  eV     1   --> A              
     e( 38 - 38) =     -1.25065  eV     1   --> A              
     e( 39 - 39) =     -0.90699  eV     1   --> A              
     e( 40 - 40) =     -0.64144  eV     1   --> A              
     e( 41 - 41) =      3.69853  eV     1   --> A              
     e( 42 - 42) =      4.20468  eV     1   --> A              
     e( 43 - 43) =      4.25000  eV     1   --> A              
     e( 44 - 44) =      4.26073  eV     1   --> A              
     e( 45 - 45) =      4.85674  eV     1   --> A              
     e( 46 - 46) =      4.85944  eV     1   --> A              
     e( 47 - 47) =      5.05622  eV     1   --> A              
     e( 48 - 48) =      5.15847  eV     1   --> A              
     e( 49 - 49) =      5.42261  eV     1   --> A              
     e( 50 - 50) =      5.79046  eV     1   --> A              
     e( 51 - 51) =      5.80692  eV     1   --> A              
     e( 52 - 52) =      5.84010  eV     1   --> A              
     e( 53 - 53) =      5.92649  eV     1   --> A              
     e( 54 - 54) =      5.94844  eV     1   --> A              
     e( 55 - 55) =      6.01356  eV     1   --> A              
     e( 56 - 56) =      6.03006  eV     1   --> A              
     e( 57 - 57) =      6.14126  eV     1   --> A              
     e( 58 - 58) =      6.22371  eV     1   --> A              
     e( 59 - 59) =      6.33219  eV     1   --> A              
     e( 60 - 60) =      6.40128  eV     1   --> A              
     e( 61 - 61) =      6.76176  eV     1   --> A              
     e( 62 - 62) =      6.79510  eV     1   --> A              
     e( 63 - 63) =      6.89271  eV     1   --> A              
     e( 64 - 64) =      6.94496  eV     1   --> A              
     e( 65 - 65) =      7.00107  eV     1   --> A              
     e( 66 - 66) =      7.36247  eV     1   --> A              
     e( 67 - 67) =      7.45411  eV     1   --> A              
     e( 68 - 68) =      7.55526  eV     1   --> A              
     e( 69 - 69) =      7.72259  eV     1   --> A              
     e( 70 - 70) =      8.41532  eV     1   --> A              
     e( 71 - 71) =      8.56696  eV     1   --> A              
     e( 72 - 72) =      8.59399  eV     1   --> A              
     e( 73 - 73) =      8.59873  eV     1   --> A              
     e( 74 - 74) =      8.81992  eV     1   --> A              
     e( 75 - 75) =      8.84285  eV     1   --> A              
     e( 76 - 76) =      8.90567  eV     1   --> A              
     e( 77 - 77) =      8.91000  eV     1   --> A              
     e( 78 - 78) =      9.01243  eV     1   --> A              
     e( 79 - 79) =      9.09359  eV     1   --> A              
     e( 80 - 80) =      9.14003  eV     1   --> A              
     e( 81 - 81) =      9.15230  eV     1   --> A              
     e( 82 - 82) =      9.26109  eV     1   --> A              
     e( 83 - 83) =      9.37731  eV     1   --> A              

 **************************************************************************

 **************************************************************************

                    xk=(   0.06263,   0.10939,  -0.01000  )

     Band symmetry, C_1 (1)     point group:

     e(  1 -  1) =    -73.96621  eV     1   --> A              
     e(  2 -  2) =    -69.36064  eV     1   --> A              
     e(  3 -  3) =    -42.72012  eV     1   --> A              
     e(  4 -  4) =    -42.71496  eV     1   --> A              
     e(  5 -  5) =    -42.71374  eV     1   --> A              
     e(  6 -  6) =    -38.20193  eV     1   --> A              
     e(  7 -  7) =    -38.19764  eV     1   --> A              
     e(  8 -  8) =    -38.18296  eV     1   --> A              
     e(  9 -  9) =    -15.56852  eV     1   --> A              
     e( 10 - 10) =    -15.56841  eV     1   --> A              
     e( 11 - 11) =    -15.56828  eV     1   --> A              
     e( 12 - 12) =    -15.56817  eV     1   --> A              
     e( 13 - 14) =    -15.56685  eV     2   -->   2 A              
     e( 15 - 15) =    -15.56537  eV     1   --> A              
     e( 16 - 16) =    -15.56526  eV     1   --> A              
     e( 17 - 17) =    -15.55749  eV     1   --> A              
     e( 18 - 18) =    -15.55720  eV     1   --> A              
     e( 19 - 19) =    -15.55496  eV     1   --> A              
     e( 20 - 20) =    -15.55465  eV     1   --> A              
     e( 21 - 21) =    -15.55294  eV     1   --> A              
     e( 22 - 22) =    -15.55282  eV     1   --> A              
     e( 23 - 24) =    -15.55238  eV     2   -->   2 A              
     e( 25 - 26) =    -15.54796  eV     2   -->   2 A              
     e( 27 - 27) =    -15.54744  eV     1   --> A              
     e( 28 - 28) =    -15.54733  eV     1   --> A              
     e( 29 - 29) =     -5.60567  eV     1   --> A              
     e( 30 - 30) =     -5.57623  eV     1   --> A              
     e( 31 - 31) =     -5.40961  eV     1   --> A              
     e( 32 - 32) =     -5.36493  eV     1   --> A              
     e( 33 - 33) =     -3.84634  eV     1   --> A              
     e( 34 - 34) =     -3.63224  eV     1   --> A              
     e( 35 - 35) =     -3.38435  eV     1   --> A              
     e( 36 - 36) =     -3.10521  eV     1   --> A              
     e( 37 - 37) =     -1.58283  eV     1   --> A              
     e( 38 - 38) =     -1.24575  eV     1   --> A              
     e( 39 - 39) =     -0.90012  eV     1   --> A              
     e( 40 - 40) =     -0.63099  eV     1   --> A              
     e( 41 - 41) =      3.69905  eV     1   --> A              
     e( 42 - 42) =      4.21154  eV     1   --> A              
     e( 43 - 43) =      4.25626  eV     1   --> A              
     e( 44 - 44) =      4.25931  eV     1   --> A              
     e( 45 - 45) =      4.85983  eV     1   --> A              
     e( 46 - 46) =      4.86199  eV     1   --> A              
     e( 47 - 47) =      5.07386  eV     1   --> A              
     e( 48 - 48) =      5.17501  eV     1   --> A              
     e( 49 - 49) =      5.52569  eV     1   --> A              
     e( 50 - 50) =      5.82273  eV     1   --> A              
     e( 51 - 51) =      5.82522  eV     1   --> A              
     e( 52 - 52) =      5.92567  eV     1   --> A              
     e( 53 - 53) =      5.93666  eV     1   --> A              
     e( 54 - 54) =      5.96544  eV     1   --> A              
     e( 55 - 55) =      6.01062  eV     1   --> A              
     e( 56 - 56) =      6.14367  eV     1   --> A              
     e( 57 - 57) =      6.18911  eV     1   --> A              
     e( 58 - 58) =      6.19363  eV     1   --> A              
     e( 59 - 59) =      6.30573  eV     1   --> A              
     e( 60 - 60) =      6.30641  eV     1   --> A              
     e( 61 - 61) =      6.65241  eV     1   --> A              
     e( 62 - 62) =      6.87741  eV     1   --> A              
     e( 63 - 63) =      6.91908  eV     1   --> A              
     e( 64 - 64) =      6.98885  eV     1   --> A              
     e( 65 - 65) =      7.02030  eV     1   --> A              
     e( 66 - 66) =      7.44664  eV     1   --> A              
     e( 67 - 67) =      7.47783  eV     1   --> A              
     e( 68 - 68) =      7.50278  eV     1   --> A              
     e( 69 - 69) =      7.74343  eV     1   --> A              
     e( 70 - 70) =      8.34827  eV     1   --> A              
     e( 71 - 71) =      8.56712  eV     1   --> A              
     e( 72 - 72) =      8.57255  eV     1   --> A              
     e( 73 - 73) =      8.58868  eV     1   --> A              
     e( 74 - 74) =      8.82857  eV     1   --> A              
     e( 75 - 75) =      8.84059  eV     1   --> A              
     e( 76 - 76) =      8.89015  eV     1   --> A              
     e( 77 - 77) =      8.90687  eV     1   --> A              
     e( 78 - 78) =      8.91867  eV     1   --> A              
     e( 79 - 79) =      9.02432  eV     1   --> A              
     e( 80 - 80) =      9.13658  eV     1   --> A              
     e( 81 - 81) =      9.22561  eV     1   --> A              
     e( 82 - 82) =      9.24869  eV     1   --> A              
     e( 83 - 83) =      9.34486  eV     1   --> A              

 **************************************************************************

 **************************************************************************

                    xk=(   0.00000,   0.00000,   0.00000  )

     point group C_i (-1)   
     there are  2 classes
     the character table:

       E     i    
A_g    1.00  1.00
A_u    1.00 -1.00

     the symmetry operations in each class and the name of the first element:

     E        1
                                                                 
     i        2
                                                                 

     Band symmetry, C_i (-1)    point group:

     e(  1 -  1) =    -73.96621  eV     1   --> A_g            
     e(  2 -  2) =    -69.36065  eV     1   --> A_g            
     e(  3 -  3) =    -42.72012  eV     1   --> A_u            
     e(  4 -  4) =    -42.71496  eV     1   --> A_u            
     e(  5 -  5) =    -42.71374  eV     1   --> A_u            
     e(  6 -  6) =    -38.20193  eV     1   --> A_u            
     e(  7 -  7) =    -38.19763  eV     1   --> A_u            
     e(  8 -  8) =    -38.18296  eV     1   --> A_u            
     e(  9 -  9) =    -15.56855  eV     1   --> A_g            
     e( 10 - 11) =    -15.56840  eV     2   --> A_g            
     e( 10 - 11) =    -15.56840  eV     2   --> A_u            
     e( 12 - 12) =    -15.56816  eV     1   --> A_u            
     e( 13 - 13) =    -15.56683  eV     1   --> A_g            
     e( 14 - 14) =    -15.56673  eV     1   --> A_u            
     e( 15 - 15) =    -15.56541  eV     1   --> A_g            
     e( 16 - 16) =    -15.56530  eV     1   --> A_u            
     e( 17 - 17) =    -15.55754  eV     1   --> A_g            
     e( 18 - 18) =    -15.55722  eV     1   --> A_u            
     e( 19 - 19) =    -15.55500  eV     1   --> A_g            
     e( 20 - 20) =    -15.55466  eV     1   --> A_u            
     e( 21 - 21) =    -15.55296  eV     1   --> A_g            
     e( 22 - 22) =    -15.55280  eV     1   --> A_u            
     e( 23 - 23) =    -15.55241  eV     1   --> A_g            
     e( 24 - 24) =    -15.55225  eV     1   --> A_u            
     e( 25 - 25) =    -15.54798  eV     1   --> A_g            
     e( 26 - 26) =    -15.54783  eV     1   --> A_u            
     e( 27 - 27) =    -15.54746  eV     1   --> A_g            
     e( 28 - 28) =    -15.54731  eV     1   --> A_u            
     e( 29 - 29) =     -5.60831  eV     1   --> A_g            
     e( 30 - 30) =     -5.57886  eV     1   --> A_u            
     e( 31 - 31) =     -5.41219  eV     1   --> A_g            
     e( 32 - 32) =     -5.36749  eV     1   --> A_u            
     e( 33 - 33) =     -3.84827  eV     1   --> A_g            
     e( 34 - 34) =     -3.63404  eV     1   --> A_g            
     e( 35 - 35) =     -3.38582  eV     1   --> A_u            
     e( 36 - 36) =     -3.10642  eV     1   --> A_u            
     e( 37 - 37) =     -1.58221  eV     1   --> A_g            
     e( 38 - 38) =     -1.24412  eV     1   --> A_u            
     e( 39 - 39) =     -0.89785  eV     1   --> A_g            
     e( 40 - 40) =     -0.62750  eV     1   --> A_u            
     e( 41 - 41) =      3.69918  eV     1   --> A_g            
     e( 42 - 42) =      4.21383  eV     1   --> A_g            
     e( 43 - 43) =      4.25834  eV     1   --> A_g            
     e( 44 - 44) =      4.25886  eV     1   --> A_g            
     e( 45 - 45) =      4.86083  eV     1   --> A_g            
     e( 46 - 46) =      4.86283  eV     1   --> A_g            
     e( 47 - 47) =      5.07940  eV     1   --> A_u            
     e( 48 - 48) =      5.18017  eV     1   --> A_g            
     e( 49 - 49) =      5.56914  eV     1   --> A_g            
     e( 50 - 50) =      5.83086  eV     1   --> A_g            
     e( 51 - 51) =      5.83229  eV     1   --> A_g            
     e( 52 - 52) =      5.93472  eV     1   --> A_u            
     e( 53 - 53) =      5.93514  eV     1   --> A_u            
     e( 54 - 54) =      6.01836  eV     1   --> A_g            
     e( 55 - 55) =      6.01965  eV     1   --> A_g            
     e( 56 - 56) =      6.14876  eV     1   --> A_u            
     e( 57 - 57) =      6.14911  eV     1   --> A_u            
     e( 58 - 58) =      6.21852  eV     1   --> A_u            
     e( 59 - 59) =      6.30950  eV     1   --> A_g            
     e( 60 - 60) =      6.31038  eV     1   --> A_g            
     e( 61 - 61) =      6.57292  eV     1   --> A_u            
     e( 62 - 62) =      6.91311  eV     1   --> A_u            
     e( 63 - 63) =      6.91379  eV     1   --> A_u            
     e( 64 - 64) =      7.02806  eV     1   --> A_u            
     e( 65 - 65) =      7.02876  eV     1   --> A_u            
     e( 66 - 66) =      7.47220  eV     1   --> A_g            
     e( 67 - 67) =      7.48678  eV     1   --> A_g            
     e( 68 - 68) =      7.48693  eV     1   --> A_g            
     e( 69 - 69) =      7.74119  eV     1   --> A_u            
     e( 70 - 70) =      8.31818  eV     1   --> A_g            
     e( 71 - 71) =      8.57180  eV     1   --> A_g            
     e( 72 - 72) =      8.57301  eV     1   --> A_g            
     e( 73 - 73) =      8.59230  eV     1   --> A_g            
     e( 74 - 74) =      8.84070  eV     1   --> A_g            
     e( 75 - 75) =      8.84479  eV     1   --> A_g            
     e( 76 - 76) =      8.87278  eV     1   --> A_u            
     e( 77 - 77) =      8.87318  eV     1   --> A_u            
     e( 78 - 78) =      8.90619  eV     1   --> A_g            
     e( 79 - 79) =      8.98661  eV     1   --> A_u            
     e( 80 - 80) =      9.14386  eV     1   --> A_u            
     e( 81 - 81) =      9.27070  eV     1   --> A_u            
     e( 82 - 82) =      9.27133  eV     1   --> A_u            
     e( 83 - 83) =      9.31463  eV     1   --> A_g            

 **************************************************************************
 
     BANDS        :   2m29.55s CPU   4m33.49s WALL

 
   This run was terminated on:   3:13:54  14Jun2025            

=------------------------------------------------------------------------------=
   JOB DONE.
=------------------------------------------------------------------------------=
