
     Program PWSCF v.7.2 starts on 13Jun2025 at 22:41:41 

     This program is part of the open-source Quantum ESPRESSO suite
     for quantum simulation of materials; please cite
         "P. Giannozzi et al., J. Phys.:Condens. Matter 21 395502 (2009);
         "P. Giannozzi et al., J. Phys.:Condens. Matter 29 465901 (2017);
         "P. Giannozzi et al., J. Chem. Phys. 152 154105 (2020);
          URL http://www.quantum-espresso.org", 
     in publications or presentations arising from this work. More details at
     http://www.quantum-espresso.org/quote

     Parallel version (MPI), running on    64 processors

     MPI processes distributed on     1 nodes
     198080 MiB available memory on the printing compute node when the environment starts
 
     Reading input from MnBi2Te4.bands.in

     Current dimensions of program PWSCF are:
     Max number of different atomic species (ntypx) = 10
     Max number of k-points (npk) =  40000
     Max angular momentum in pseudopotentials (lmaxx) =  4

     Atomic positions and unit cell read from directory:
     ./tmp/MnBi2Te4.save/
     Atomic positions from file used, from input discarded
 
     file Mn.pbe-spn-kjpaw_psl.0.3.1.UPF: wavefunction(s)  3P 3D renormalized
     file Mn.pbe-spn-kjpaw_psl.0.3.1.UPF: wavefunction(s)  3P 3D renormalized
     file Bi.pbe-dn-kjpaw_psl.1.0.0.UPF: wavefunction(s)  6P 5D renormalized
     file Te.pbe-n-kjpaw_psl.1.0.0.UPF: wavefunction(s)  5S 5P renormalized
     Message from routine setup:
     using ibrav=0 with symmetry is DISCOURAGED, use correct ibrav instead
 
     R & G space division:  proc/nbgrp/npool/nimage =      64
     Subspace diagonalization in iterative solution of the eigenvalue problem:
     a serial algorithm will be used

 
     Parallelization info
     --------------------
     sticks:   dense  smooth     PW     G-vecs:    dense   smooth      PW
     Min         126     126     39                 2936     2936     509
     Max         127     127     40                 2938     2938     510
     Sum        8079    8079   2519               187971   187971   32619
 
     Using Slab Decomposition
 


     bravais-lattice index     =            0
     lattice parameter (alat)  =      51.7756  a.u.
     unit-cell volume          =    2994.5593 (a.u.)^3
     number of atoms/cell      =           14
     number of atomic types    =            4
     number of electrons       =       138.00
     number of Kohn-Sham states=           83
     kinetic-energy cutoff     =      60.0000  Ry
     charge density cutoff     =     240.0000  Ry
     Exchange-correlation= SLA  PW   PBX  PBC
                           (   1   4   3   4   0   0   0)

     celldm(1)=  51.775623  celldm(2)=   0.000000  celldm(3)=   0.000000
     celldm(4)=   0.000000  celldm(5)=   0.000000  celldm(6)=   0.000000

     crystal axes: (cart. coord. in units of alat)
               a(1) = (   0.157674   0.000000   0.987491 )  
               a(2) = (   0.078341   0.136835   0.987491 )  
               a(3) = (   0.000000   0.000000   1.000000 )  

     reciprocal axes: (cart. coord. in units 2 pi/alat)
               b(1) = (  6.342202 -3.631040  0.000000 )  
               b(2) = (  0.000000  7.308076  0.000000 )  
               b(3) = ( -6.262868 -3.631040  1.000000 )  


     PseudoPot. # 1 for Mn read from file:
     ./Mn.pbe-spn-kjpaw_psl.0.3.1.UPF
     MD5 check sum: 872d0d815bb0ce6e24cff79ea4d0ae31
     Pseudo is Projector augmented-wave + core cor, Zval = 15.0
     Generated using &quot;atomic&quot; code by A. Dal Corso  v.6.2.2
     Shape of augmentation charge: PSQ
     Using radial grid of 1187 points,  6 beta functions with: 
                l(1) =   0
                l(2) =   0
                l(3) =   1
                l(4) =   1
                l(5) =   2
                l(6) =   2
     Q(r) pseudized with 0 coefficients 


     PseudoPot. # 2 for Mn read from file:
     ./Mn.pbe-spn-kjpaw_psl.0.3.1.UPF
     MD5 check sum: 872d0d815bb0ce6e24cff79ea4d0ae31
     Pseudo is Projector augmented-wave + core cor, Zval = 15.0
     Generated using &quot;atomic&quot; code by A. Dal Corso  v.6.2.2
     Shape of augmentation charge: PSQ
     Using radial grid of 1187 points,  6 beta functions with: 
                l(1) =   0
                l(2) =   0
                l(3) =   1
                l(4) =   1
                l(5) =   2
                l(6) =   2
     Q(r) pseudized with 0 coefficients 


     PseudoPot. # 3 for Bi read from file:
     ./Bi.pbe-dn-kjpaw_psl.1.0.0.UPF
     MD5 check sum: 29baffecec4108f41a587bcf9a453472
     Pseudo is Projector augmented-wave + core cor, Zval = 15.0
     Generated using &quot;atomic&quot; code by A. Dal Corso  v.6.2.2
     Shape of augmentation charge: PSQ
     Using radial grid of 1283 points,  6 beta functions with: 
                l(1) =   0
                l(2) =   0
                l(3) =   1
                l(4) =   1
                l(5) =   2
                l(6) =   2
     Q(r) pseudized with 0 coefficients 


     PseudoPot. # 4 for Te read from file:
     ./Te.pbe-n-kjpaw_psl.1.0.0.UPF
     MD5 check sum: 960f80ef2db6fd2ef753b89a550c1479
     Pseudo is Projector augmented-wave + core cor, Zval =  6.0
     Generated using &quot;atomic&quot; code by A. Dal Corso  v.6.3
     Shape of augmentation charge: PSQ
     Using radial grid of 1245 points,  6 beta functions with: 
                l(1) =   0
                l(2) =   0
                l(3) =   1
                l(4) =   1
                l(5) =   2
                l(6) =   2
     Q(r) pseudized with 0 coefficients 


     atomic species   valence    mass     pseudopotential
        Mn1           15.00    54.93800     Mn( 1.00)
        Mn2           15.00    54.93800     Mn( 1.00)
        Bi            15.00   208.98000     Bi( 1.00)
        Te             6.00   127.60300     Te( 1.00)

     Starting magnetic structure 
     atomic species   magnetization
        Mn1          0.333
        Mn2         -0.333
        Bi           0.000
        Te           0.000

      2 Sym. Ops., with inversion, found


                                    s                        frac. trans.

      isym =  1     identity                                     

 cryst.   s( 1) = (     1          0          0      )
                  (     0          1          0      )
                  (     0          0          1      )

 cart.    s( 1) = (  1.0000000  0.0000000  0.0000000 )
                  (  0.0000000  1.0000000  0.0000000 )
                  (  0.0000000  0.0000000  1.0000000 )


      isym =  2     inversion                                    

 cryst.   s( 2) = (    -1          0          0      )
                  (     0         -1          0      )
                  (     0          0         -1      )

 cart.    s( 2) = ( -1.0000000  0.0000000  0.0000000 )
                  (  0.0000000 -1.0000000  0.0000000 )
                  (  0.0000000  0.0000000 -1.0000000 )


   Cartesian axes

     site n.     atom                  positions (alat units)
         1           Mn1 tau(   1) = (   0.0000000   0.0000000   0.0000000  )
         2           Mn2 tau(   2) = (   0.1180074   0.0684175   1.4874912  )
         3           Bi  tau(   3) = (   0.0501413   0.0290706   0.6320350  )
         4           Bi  tau(   4) = (   0.1681487   0.0974880   2.1195262  )
         5           Bi  tau(   5) = (   0.0678660   0.0393469   0.8554562  )
         6           Bi  tau(   6) = (   0.1858734   0.1077643   2.3429474  )
         7           Te  tau(   7) = (   0.0157375   0.0091242   0.1983718  )
         8           Te  tau(   8) = (   0.1337448   0.0775416   1.6858631  )
         9           Te  tau(   9) = (   0.1022699   0.0592933   1.2891194  )
        10           Te  tau(  10) = (   0.2202773   0.1277108   2.7766106  )
        11           Te  tau(  11) = (   0.0347012   0.0201188   0.4374117  )
        12           Te  tau(  12) = (   0.1527086   0.0885363   1.9249029  )
        13           Te  tau(  13) = (   0.0833061   0.0482986   1.0500796  )
        14           Te  tau(  14) = (   0.2013135   0.1167161   2.5375708  )

   Crystallographic axes

     site n.     atom                  positions (cryst. coord.)
         1           Mn1 tau(   1) = (  0.0000000  0.0000000  0.0000000  )
         2           Mn2 tau(   2) = (  0.5000000  0.5000000  0.5000000  )
         3           Bi  tau(   3) = (  0.2124500  0.2124500  0.2124500  )
         4           Bi  tau(   4) = (  0.7124500  0.7124500  0.7124500  )
         5           Bi  tau(   5) = (  0.2875500  0.2875500  0.2875500  )
         6           Bi  tau(   6) = (  0.7875500  0.7875500  0.7875500  )
         7           Te  tau(   7) = (  0.0666800  0.0666800  0.0666800  )
         8           Te  tau(   8) = (  0.5666800  0.5666800  0.5666800  )
         9           Te  tau(   9) = (  0.4333200  0.4333200  0.4333200  )
        10           Te  tau(  10) = (  0.9333200  0.9333200  0.9333200  )
        11           Te  tau(  11) = (  0.1470300  0.1470300  0.1470300  )
        12           Te  tau(  12) = (  0.6470300  0.6470300  0.6470300  )
        13           Te  tau(  13) = (  0.3529700  0.3529700  0.3529700  )
        14           Te  tau(  14) = (  0.8529700  0.8529700  0.8529700  )

     number of k points=   151  Marzari-Vanderbilt smearing, width (Ry)=  0.0200
                       cart. coord. in units 2pi/alat
        k(    1) = (   0.0000000   0.0000000   0.0000000), wk =   0.0066225
        k(    2) = (   0.1260507   0.0730808  -0.0100000), wk =   0.0066225
        k(    3) = (   0.2521014   0.1461615  -0.0200000), wk =   0.0066225
        k(    4) = (   0.3781521   0.2192423  -0.0300000), wk =   0.0066225
        k(    5) = (   0.5042028   0.2923230  -0.0400000), wk =   0.0066225
        k(    6) = (   0.6302535   0.3654038  -0.0500000), wk =   0.0066225
        k(    7) = (   0.7563042   0.4384846  -0.0600000), wk =   0.0066225
        k(    8) = (   0.8823549   0.5115653  -0.0700000), wk =   0.0066225
        k(    9) = (   1.0084056   0.5846461  -0.0800000), wk =   0.0066225
        k(   10) = (   1.1344563   0.6577268  -0.0900000), wk =   0.0066225
        k(   11) = (   1.2605070   0.7308076  -0.1000000), wk =   0.0066225
        k(   12) = (   1.3865577   0.8038884  -0.1100000), wk =   0.0066225
        k(   13) = (   1.5126084   0.8769691  -0.1200000), wk =   0.0066225
        k(   14) = (   1.6386591   0.9500499  -0.1300000), wk =   0.0066225
        k(   15) = (   1.7647098   1.0231306  -0.1400000), wk =   0.0066225
        k(   16) = (   1.8907605   1.0962114  -0.1500000), wk =   0.0066225
        k(   17) = (   2.0168112   1.1692922  -0.1600000), wk =   0.0066225
        k(   18) = (   2.1428619   1.2423729  -0.1700000), wk =   0.0066225
        k(   19) = (   2.2689126   1.3154537  -0.1800000), wk =   0.0066225
        k(   20) = (   2.3949633   1.3885344  -0.1900000), wk =   0.0066225
        k(   21) = (   2.5210140   1.4616152  -0.2000000), wk =   0.0066225
        k(   22) = (   2.6470647   1.5346960  -0.2100000), wk =   0.0066225
        k(   23) = (   2.7731154   1.6077767  -0.2200000), wk =   0.0066225
        k(   24) = (   2.8991661   1.6808575  -0.2300000), wk =   0.0066225
        k(   25) = (   3.0252168   1.7539382  -0.2400000), wk =   0.0066225
        k(   26) = (   3.1512675   1.8270190  -0.2500000), wk =   0.0066225
        k(   27) = (   3.2773182   1.9000997  -0.2600000), wk =   0.0066225
        k(   28) = (   3.4033689   1.9731805  -0.2700000), wk =   0.0066225
        k(   29) = (   3.5294196   2.0462613  -0.2800000), wk =   0.0066225
        k(   30) = (   3.6554703   2.1193420  -0.2900000), wk =   0.0066225
        k(   31) = (   3.7815210   2.1924228  -0.3000000), wk =   0.0066225
        k(   32) = (   3.9075717   2.2655035  -0.3100000), wk =   0.0066225
        k(   33) = (   4.0336224   2.3385843  -0.3200000), wk =   0.0066225
        k(   34) = (   4.1596731   2.4116651  -0.3300000), wk =   0.0066225
        k(   35) = (   4.2857237   2.4847458  -0.3400000), wk =   0.0066225
        k(   36) = (   4.4117744   2.5578266  -0.3500000), wk =   0.0066225
        k(   37) = (   4.5378251   2.6309073  -0.3600000), wk =   0.0066225
        k(   38) = (   4.6638758   2.7039881  -0.3700000), wk =   0.0066225
        k(   39) = (   4.7899265   2.7770689  -0.3800000), wk =   0.0066225
        k(   40) = (   4.9159772   2.8501496  -0.3900000), wk =   0.0066225
        k(   41) = (   5.0420279   2.9232304  -0.4000000), wk =   0.0066225
        k(   42) = (   5.1680786   2.9963111  -0.4100000), wk =   0.0066225
        k(   43) = (   5.2941293   3.0693919  -0.4200000), wk =   0.0066225
        k(   44) = (   5.4201800   3.1424727  -0.4300000), wk =   0.0066225
        k(   45) = (   5.5462307   3.2155534  -0.4400000), wk =   0.0066225
        k(   46) = (   5.6722814   3.2886342  -0.4500000), wk =   0.0066225
        k(   47) = (   5.7983321   3.3617149  -0.4600000), wk =   0.0066225
        k(   48) = (   5.9243828   3.4347957  -0.4700000), wk =   0.0066225
        k(   49) = (   6.0504335   3.5078765  -0.4800000), wk =   0.0066225
        k(   50) = (   6.1764842   3.5809572  -0.4900000), wk =   0.0066225
        k(   51) = (   6.3025349   3.6540380  -0.5000000), wk =   0.0066225
        k(   52) = (   6.2391129   3.6903484  -0.5000000), wk =   0.0066225
        k(   53) = (   6.1756909   3.7266588  -0.5000000), wk =   0.0066225
        k(   54) = (   6.1122689   3.7629692  -0.5000000), wk =   0.0066225
        k(   55) = (   6.0488469   3.7992796  -0.5000000), wk =   0.0066225
        k(   56) = (   5.9854249   3.8355900  -0.5000000), wk =   0.0066225
        k(   57) = (   5.9220028   3.8719004  -0.5000000), wk =   0.0066225
        k(   58) = (   5.8585808   3.9082108  -0.5000000), wk =   0.0066225
        k(   59) = (   5.7951588   3.9445212  -0.5000000), wk =   0.0066225
        k(   60) = (   5.7317368   3.9808316  -0.5000000), wk =   0.0066225
        k(   61) = (   5.6683148   4.0171420  -0.5000000), wk =   0.0066225
        k(   62) = (   5.6048928   4.0534524  -0.5000000), wk =   0.0066225
        k(   63) = (   5.5414707   4.0897628  -0.5000000), wk =   0.0066225
        k(   64) = (   5.4780487   4.1260732  -0.5000000), wk =   0.0066225
        k(   65) = (   5.4146267   4.1623836  -0.5000000), wk =   0.0066225
        k(   66) = (   5.3512047   4.1986940  -0.5000000), wk =   0.0066225
        k(   67) = (   5.2877827   4.2350044  -0.5000000), wk =   0.0066225
        k(   68) = (   5.2243607   4.2713148  -0.5000000), wk =   0.0066225
        k(   69) = (   5.1609387   4.3076252  -0.5000000), wk =   0.0066225
        k(   70) = (   5.0975166   4.3439356  -0.5000000), wk =   0.0066225
        k(   71) = (   5.0340946   4.3802461  -0.5000000), wk =   0.0066225
        k(   72) = (   4.9706726   4.4165565  -0.5000000), wk =   0.0066225
        k(   73) = (   4.9072506   4.4528669  -0.5000000), wk =   0.0066225
        k(   74) = (   4.8438286   4.4891773  -0.5000000), wk =   0.0066225
        k(   75) = (   4.7804066   4.5254877  -0.5000000), wk =   0.0066225
        k(   76) = (   4.7169845   4.5617981  -0.5000000), wk =   0.0066225
        k(   77) = (   4.6535625   4.5981085  -0.5000000), wk =   0.0066225
        k(   78) = (   4.5901405   4.6344189  -0.5000000), wk =   0.0066225
        k(   79) = (   4.5267185   4.6707293  -0.5000000), wk =   0.0066225
        k(   80) = (   4.4632965   4.7070397  -0.5000000), wk =   0.0066225
        k(   81) = (   4.3998745   4.7433501  -0.5000000), wk =   0.0066225
        k(   82) = (   4.3364525   4.7796605  -0.5000000), wk =   0.0066225
        k(   83) = (   4.2730304   4.8159709  -0.5000000), wk =   0.0066225
        k(   84) = (   4.2096084   4.8522813  -0.5000000), wk =   0.0066225
        k(   85) = (   4.1461864   4.8885917  -0.5000000), wk =   0.0066225
        k(   86) = (   4.0827644   4.9249021  -0.5000000), wk =   0.0066225
        k(   87) = (   4.0193424   4.9612125  -0.5000000), wk =   0.0066225
        k(   88) = (   3.9559204   4.9975229  -0.5000000), wk =   0.0066225
        k(   89) = (   3.8924984   5.0338333  -0.5000000), wk =   0.0066225
        k(   90) = (   3.8290763   5.0701437  -0.5000000), wk =   0.0066225
        k(   91) = (   3.7656543   5.1064541  -0.5000000), wk =   0.0066225
        k(   92) = (   3.7022323   5.1427645  -0.5000000), wk =   0.0066225
        k(   93) = (   3.6388103   5.1790749  -0.5000000), wk =   0.0066225
        k(   94) = (   3.5753883   5.2153853  -0.5000000), wk =   0.0066225
        k(   95) = (   3.5119663   5.2516957  -0.5000000), wk =   0.0066225
        k(   96) = (   3.4485442   5.2880061  -0.5000000), wk =   0.0066225
        k(   97) = (   3.3851222   5.3243165  -0.5000000), wk =   0.0066225
        k(   98) = (   3.3217002   5.3606270  -0.5000000), wk =   0.0066225
        k(   99) = (   3.2582782   5.3969374  -0.5000000), wk =   0.0066225
        k(  100) = (   3.1948562   5.4332478  -0.5000000), wk =   0.0066225
        k(  101) = (   3.1314342   5.4695582  -0.5000000), wk =   0.0066225
        k(  102) = (   3.0688055   5.3601670  -0.4900000), wk =   0.0066225
        k(  103) = (   3.0061768   5.2507758  -0.4800000), wk =   0.0066225
        k(  104) = (   2.9435481   5.1413847  -0.4700000), wk =   0.0066225
        k(  105) = (   2.8809194   5.0319935  -0.4600000), wk =   0.0066225
        k(  106) = (   2.8182908   4.9226023  -0.4500000), wk =   0.0066225
        k(  107) = (   2.7556621   4.8132112  -0.4400000), wk =   0.0066225
        k(  108) = (   2.6930334   4.7038200  -0.4300000), wk =   0.0066225
        k(  109) = (   2.6304047   4.5944289  -0.4200000), wk =   0.0066225
        k(  110) = (   2.5677760   4.4850377  -0.4100000), wk =   0.0066225
        k(  111) = (   2.5051473   4.3756465  -0.4000000), wk =   0.0066225
        k(  112) = (   2.4425187   4.2662554  -0.3900000), wk =   0.0066225
        k(  113) = (   2.3798900   4.1568642  -0.3800000), wk =   0.0066225
        k(  114) = (   2.3172613   4.0474730  -0.3700000), wk =   0.0066225
        k(  115) = (   2.2546326   3.9380819  -0.3600000), wk =   0.0066225
        k(  116) = (   2.1920039   3.8286907  -0.3500000), wk =   0.0066225
        k(  117) = (   2.1293752   3.7192996  -0.3400000), wk =   0.0066225
        k(  118) = (   2.0667466   3.6099084  -0.3300000), wk =   0.0066225
        k(  119) = (   2.0041179   3.5005172  -0.3200000), wk =   0.0066225
        k(  120) = (   1.9414892   3.3911261  -0.3100000), wk =   0.0066225
        k(  121) = (   1.8788605   3.2817349  -0.3000000), wk =   0.0066225
        k(  122) = (   1.8162318   3.1723437  -0.2900000), wk =   0.0066225
        k(  123) = (   1.7536031   3.0629526  -0.2800000), wk =   0.0066225
        k(  124) = (   1.6909745   2.9535614  -0.2700000), wk =   0.0066225
        k(  125) = (   1.6283458   2.8441702  -0.2600000), wk =   0.0066225
        k(  126) = (   1.5657171   2.7347791  -0.2500000), wk =   0.0066225
        k(  127) = (   1.5030884   2.6253879  -0.2400000), wk =   0.0066225
        k(  128) = (   1.4404597   2.5159968  -0.2300000), wk =   0.0066225
        k(  129) = (   1.3778310   2.4066056  -0.2200000), wk =   0.0066225
        k(  130) = (   1.3152024   2.2972144  -0.2100000), wk =   0.0066225
        k(  131) = (   1.2525737   2.1878233  -0.2000000), wk =   0.0066225
        k(  132) = (   1.1899450   2.0784321  -0.1900000), wk =   0.0066225
        k(  133) = (   1.1273163   1.9690409  -0.1800000), wk =   0.0066225
        k(  134) = (   1.0646876   1.8596498  -0.1700000), wk =   0.0066225
        k(  135) = (   1.0020589   1.7502586  -0.1600000), wk =   0.0066225
        k(  136) = (   0.9394303   1.6408674  -0.1500000), wk =   0.0066225
        k(  137) = (   0.8768016   1.5314763  -0.1400000), wk =   0.0066225
        k(  138) = (   0.8141729   1.4220851  -0.1300000), wk =   0.0066225
        k(  139) = (   0.7515442   1.3126940  -0.1200000), wk =   0.0066225
        k(  140) = (   0.6889155   1.2033028  -0.1100000), wk =   0.0066225
        k(  141) = (   0.6262868   1.0939116  -0.1000000), wk =   0.0066225
        k(  142) = (   0.5636582   0.9845205  -0.0900000), wk =   0.0066225
        k(  143) = (   0.5010295   0.8751293  -0.0800000), wk =   0.0066225
        k(  144) = (   0.4384008   0.7657381  -0.0700000), wk =   0.0066225
        k(  145) = (   0.3757721   0.6563470  -0.0600000), wk =   0.0066225
        k(  146) = (   0.3131434   0.5469558  -0.0500000), wk =   0.0066225
        k(  147) = (   0.2505147   0.4375647  -0.0400000), wk =   0.0066225
        k(  148) = (   0.1878861   0.3281735  -0.0300000), wk =   0.0066225
        k(  149) = (   0.1252574   0.2187823  -0.0200000), wk =   0.0066225
        k(  150) = (   0.0626287   0.1093912  -0.0100000), wk =   0.0066225
        k(  151) = (   0.0000000   0.0000000   0.0000000), wk =   0.0066225

                       cryst. coord.
        k(    1) = (   0.0000000   0.0000000   0.0000000), wk =   0.0066225
        k(    2) = (   0.0100000   0.0100000  -0.0100000), wk =   0.0066225
        k(    3) = (   0.0200000   0.0200000  -0.0200000), wk =   0.0066225
        k(    4) = (   0.0300000   0.0300000  -0.0300000), wk =   0.0066225
        k(    5) = (   0.0400000   0.0400000  -0.0400000), wk =   0.0066225
        k(    6) = (   0.0500000   0.0500000  -0.0500000), wk =   0.0066225
        k(    7) = (   0.0600000   0.0600000  -0.0600000), wk =   0.0066225
        k(    8) = (   0.0700000   0.0700000  -0.0700000), wk =   0.0066225
        k(    9) = (   0.0800000   0.0800000  -0.0800000), wk =   0.0066225
        k(   10) = (   0.0900000   0.0900000  -0.0900000), wk =   0.0066225
        k(   11) = (   0.1000000   0.1000000  -0.1000000), wk =   0.0066225
        k(   12) = (   0.1100000   0.1100000  -0.1100000), wk =   0.0066225
        k(   13) = (   0.1200000   0.1200000  -0.1200000), wk =   0.0066225
        k(   14) = (   0.1300000   0.1300000  -0.1300000), wk =   0.0066225
        k(   15) = (   0.1400000   0.1400000  -0.1400000), wk =   0.0066225
        k(   16) = (   0.1500000   0.1500000  -0.1500000), wk =   0.0066225
        k(   17) = (   0.1600000   0.1600000  -0.1600000), wk =   0.0066225
        k(   18) = (   0.1700000   0.1700000  -0.1700000), wk =   0.0066225
        k(   19) = (   0.1800000   0.1800000  -0.1800000), wk =   0.0066225
        k(   20) = (   0.1900000   0.1900000  -0.1900000), wk =   0.0066225
        k(   21) = (   0.2000000   0.2000000  -0.2000000), wk =   0.0066225
        k(   22) = (   0.2100000   0.2100000  -0.2100000), wk =   0.0066225
        k(   23) = (   0.2200000   0.2200000  -0.2200000), wk =   0.0066225
        k(   24) = (   0.2300000   0.2300000  -0.2300000), wk =   0.0066225
        k(   25) = (   0.2400000   0.2400000  -0.2400000), wk =   0.0066225
        k(   26) = (   0.2500000   0.2500000  -0.2500000), wk =   0.0066225
        k(   27) = (   0.2600000   0.2600000  -0.2600000), wk =   0.0066225
        k(   28) = (   0.2700000   0.2700000  -0.2700000), wk =   0.0066225
        k(   29) = (   0.2800000   0.2800000  -0.2800000), wk =   0.0066225
        k(   30) = (   0.2900000   0.2900000  -0.2900000), wk =   0.0066225
        k(   31) = (   0.3000000   0.3000000  -0.3000000), wk =   0.0066225
        k(   32) = (   0.3100000   0.3100000  -0.3100000), wk =   0.0066225
        k(   33) = (   0.3200000   0.3200000  -0.3200000), wk =   0.0066225
        k(   34) = (   0.3300000   0.3300000  -0.3300000), wk =   0.0066225
        k(   35) = (   0.3400000   0.3400000  -0.3400000), wk =   0.0066225
        k(   36) = (   0.3500000   0.3500000  -0.3500000), wk =   0.0066225
        k(   37) = (   0.3600000   0.3600000  -0.3600000), wk =   0.0066225
        k(   38) = (   0.3700000   0.3700000  -0.3700000), wk =   0.0066225
        k(   39) = (   0.3800000   0.3800000  -0.3800000), wk =   0.0066225
        k(   40) = (   0.3900000   0.3900000  -0.3900000), wk =   0.0066225
        k(   41) = (   0.4000000   0.4000000  -0.4000000), wk =   0.0066225
        k(   42) = (   0.4100000   0.4100000  -0.4100000), wk =   0.0066225
        k(   43) = (   0.4200000   0.4200000  -0.4200000), wk =   0.0066225
        k(   44) = (   0.4300000   0.4300000  -0.4300000), wk =   0.0066225
        k(   45) = (   0.4400000   0.4400000  -0.4400000), wk =   0.0066225
        k(   46) = (   0.4500000   0.4500000  -0.4500000), wk =   0.0066225
        k(   47) = (   0.4600000   0.4600000  -0.4600000), wk =   0.0066225
        k(   48) = (   0.4700000   0.4700000  -0.4700000), wk =   0.0066225
        k(   49) = (   0.4800000   0.4800000  -0.4800000), wk =   0.0066225
        k(   50) = (   0.4900000   0.4900000  -0.4900000), wk =   0.0066225
        k(   51) = (   0.5000000   0.5000000  -0.5000000), wk =   0.0066225
        k(   52) = (   0.4900000   0.5000000  -0.5000000), wk =   0.0066225
        k(   53) = (   0.4800000   0.5000000  -0.5000000), wk =   0.0066225
        k(   54) = (   0.4700000   0.5000000  -0.5000000), wk =   0.0066225
        k(   55) = (   0.4600000   0.5000000  -0.5000000), wk =   0.0066225
        k(   56) = (   0.4500000   0.5000000  -0.5000000), wk =   0.0066225
        k(   57) = (   0.4400000   0.5000000  -0.5000000), wk =   0.0066225
        k(   58) = (   0.4300000   0.5000000  -0.5000000), wk =   0.0066225
        k(   59) = (   0.4200000   0.5000000  -0.5000000), wk =   0.0066225
        k(   60) = (   0.4100000   0.5000000  -0.5000000), wk =   0.0066225
        k(   61) = (   0.4000000   0.5000000  -0.5000000), wk =   0.0066225
        k(   62) = (   0.3900000   0.5000000  -0.5000000), wk =   0.0066225
        k(   63) = (   0.3800000   0.5000000  -0.5000000), wk =   0.0066225
        k(   64) = (   0.3700000   0.5000000  -0.5000000), wk =   0.0066225
        k(   65) = (   0.3600000   0.5000000  -0.5000000), wk =   0.0066225
        k(   66) = (   0.3500000   0.5000000  -0.5000000), wk =   0.0066225
        k(   67) = (   0.3400000   0.5000000  -0.5000000), wk =   0.0066225
        k(   68) = (   0.3300000   0.5000000  -0.5000000), wk =   0.0066225
        k(   69) = (   0.3200000   0.5000000  -0.5000000), wk =   0.0066225
        k(   70) = (   0.3100000   0.5000000  -0.5000000), wk =   0.0066225
        k(   71) = (   0.3000000   0.5000000  -0.5000000), wk =   0.0066225
        k(   72) = (   0.2900000   0.5000000  -0.5000000), wk =   0.0066225
        k(   73) = (   0.2800000   0.5000000  -0.5000000), wk =   0.0066225
        k(   74) = (   0.2700000   0.5000000  -0.5000000), wk =   0.0066225
        k(   75) = (   0.2600000   0.5000000  -0.5000000), wk =   0.0066225
        k(   76) = (   0.2500000   0.5000000  -0.5000000), wk =   0.0066225
        k(   77) = (   0.2400000   0.5000000  -0.5000000), wk =   0.0066225
        k(   78) = (   0.2300000   0.5000000  -0.5000000), wk =   0.0066225
        k(   79) = (   0.2200000   0.5000000  -0.5000000), wk =   0.0066225
        k(   80) = (   0.2100000   0.5000000  -0.5000000), wk =   0.0066225
        k(   81) = (   0.2000000   0.5000000  -0.5000000), wk =   0.0066225
        k(   82) = (   0.1900000   0.5000000  -0.5000000), wk =   0.0066225
        k(   83) = (   0.1800000   0.5000000  -0.5000000), wk =   0.0066225
        k(   84) = (   0.1700000   0.5000000  -0.5000000), wk =   0.0066225
        k(   85) = (   0.1600000   0.5000000  -0.5000000), wk =   0.0066225
        k(   86) = (   0.1500000   0.5000000  -0.5000000), wk =   0.0066225
        k(   87) = (   0.1400000   0.5000000  -0.5000000), wk =   0.0066225
        k(   88) = (   0.1300000   0.5000000  -0.5000000), wk =   0.0066225
        k(   89) = (   0.1200000   0.5000000  -0.5000000), wk =   0.0066225
        k(   90) = (   0.1100000   0.5000000  -0.5000000), wk =   0.0066225
        k(   91) = (   0.1000000   0.5000000  -0.5000000), wk =   0.0066225
        k(   92) = (   0.0900000   0.5000000  -0.5000000), wk =   0.0066225
        k(   93) = (   0.0800000   0.5000000  -0.5000000), wk =   0.0066225
        k(   94) = (   0.0700000   0.5000000  -0.5000000), wk =   0.0066225
        k(   95) = (   0.0600000   0.5000000  -0.5000000), wk =   0.0066225
        k(   96) = (   0.0500000   0.5000000  -0.5000000), wk =   0.0066225
        k(   97) = (   0.0400000   0.5000000  -0.5000000), wk =   0.0066225
        k(   98) = (   0.0300000   0.5000000  -0.5000000), wk =   0.0066225
        k(   99) = (   0.0200000   0.5000000  -0.5000000), wk =   0.0066225
        k(  100) = (   0.0100000   0.5000000  -0.5000000), wk =   0.0066225
        k(  101) = (   0.0000000   0.5000000  -0.5000000), wk =   0.0066225
        k(  102) = (   0.0000000   0.4900000  -0.4900000), wk =   0.0066225
        k(  103) = (  -0.0000000   0.4800000  -0.4800000), wk =   0.0066225
        k(  104) = (   0.0000000   0.4700000  -0.4700000), wk =   0.0066225
        k(  105) = (  -0.0000000   0.4600000  -0.4600000), wk =   0.0066225
        k(  106) = (   0.0000000   0.4500000  -0.4500000), wk =   0.0066225
        k(  107) = (   0.0000000   0.4400000  -0.4400000), wk =   0.0066225
        k(  108) = (   0.0000000   0.4300000  -0.4300000), wk =   0.0066225
        k(  109) = (   0.0000000   0.4200000  -0.4200000), wk =   0.0066225
        k(  110) = (  -0.0000000   0.4100000  -0.4100000), wk =   0.0066225
        k(  111) = (  -0.0000000   0.4000000  -0.4000000), wk =   0.0066225
        k(  112) = (  -0.0000000   0.3900000  -0.3900000), wk =   0.0066225
        k(  113) = (   0.0000000   0.3800000  -0.3800000), wk =   0.0066225
        k(  114) = (   0.0000000   0.3700000  -0.3700000), wk =   0.0066225
        k(  115) = (   0.0000000   0.3600000  -0.3600000), wk =   0.0066225
        k(  116) = (  -0.0000000   0.3500000  -0.3500000), wk =   0.0066225
        k(  117) = (   0.0000000   0.3400000  -0.3400000), wk =   0.0066225
        k(  118) = (   0.0000000   0.3300000  -0.3300000), wk =   0.0066225
        k(  119) = (  -0.0000000   0.3200000  -0.3200000), wk =   0.0066225
        k(  120) = (   0.0000000   0.3100000  -0.3100000), wk =   0.0066225
        k(  121) = (   0.0000000   0.3000000  -0.3000000), wk =   0.0066225
        k(  122) = (  -0.0000000   0.2900000  -0.2900000), wk =   0.0066225
        k(  123) = (   0.0000000   0.2800000  -0.2800000), wk =   0.0066225
        k(  124) = (   0.0000000   0.2700000  -0.2700000), wk =   0.0066225
        k(  125) = (  -0.0000000   0.2600000  -0.2600000), wk =   0.0066225
        k(  126) = (   0.0000000   0.2500000  -0.2500000), wk =   0.0066225
        k(  127) = (  -0.0000000   0.2400000  -0.2400000), wk =   0.0066225
        k(  128) = (  -0.0000000   0.2300000  -0.2300000), wk =   0.0066225
        k(  129) = (  -0.0000000   0.2200000  -0.2200000), wk =   0.0066225
        k(  130) = (  -0.0000000   0.2100000  -0.2100000), wk =   0.0066225
        k(  131) = (  -0.0000000   0.2000000  -0.2000000), wk =   0.0066225
        k(  132) = (   0.0000000   0.1900000  -0.1900000), wk =   0.0066225
        k(  133) = (   0.0000000   0.1800000  -0.1800000), wk =   0.0066225
        k(  134) = (   0.0000000   0.1700000  -0.1700000), wk =   0.0066225
        k(  135) = (  -0.0000000   0.1600000  -0.1600000), wk =   0.0066225
        k(  136) = (   0.0000000   0.1500000  -0.1500000), wk =   0.0066225
        k(  137) = (   0.0000000   0.1400000  -0.1400000), wk =   0.0066225
        k(  138) = (  -0.0000000   0.1300000  -0.1300000), wk =   0.0066225
        k(  139) = (  -0.0000000   0.1200000  -0.1200000), wk =   0.0066225
        k(  140) = (  -0.0000000   0.1100000  -0.1100000), wk =   0.0066225
        k(  141) = (   0.0000000   0.1000000  -0.1000000), wk =   0.0066225
        k(  142) = (   0.0000000   0.0900000  -0.0900000), wk =   0.0066225
        k(  143) = (   0.0000000   0.0800000  -0.0800000), wk =   0.0066225
        k(  144) = (   0.0000000   0.0700000  -0.0700000), wk =   0.0066225
        k(  145) = (  -0.0000000   0.0600000  -0.0600000), wk =   0.0066225
        k(  146) = (   0.0000000   0.0500000  -0.0500000), wk =   0.0066225
        k(  147) = (  -0.0000000   0.0400000  -0.0400000), wk =   0.0066225
        k(  148) = (  -0.0000000   0.0300000  -0.0300000), wk =   0.0066225
        k(  149) = (  -0.0000000   0.0200000  -0.0200000), wk =   0.0066225
        k(  150) = (  -0.0000000   0.0100000  -0.0100000), wk =   0.0066225
        k(  151) = (   0.0000000   0.0000000   0.0000000), wk =   0.0066225

     Dense  grid:   187971 G-vectors     FFT dimensions: ( 256, 256, 256)

     Dynamical RAM for                 wfc:       0.46 MB

     Dynamical RAM for     wfc (w. buffer):       0.46 MB

     Dynamical RAM for           str. fact:       0.18 MB

     Dynamical RAM for           local pot:       0.00 MB

     Dynamical RAM for          nlocal pot:       1.41 MB

     Dynamical RAM for                qrad:       4.98 MB

     Dynamical RAM for          rho,v,vnew:      12.27 MB

     Dynamical RAM for           G-vectors:       0.19 MB

     Dynamical RAM for          h,s,v(r/c):       1.26 MB

     Dynamical RAM for          <psi|beta>:       0.32 MB

     Dynamical RAM for                 psi:       0.93 MB

     Dynamical RAM for                hpsi:       0.93 MB

     Dynamical RAM for                spsi:       0.93 MB

     Dynamical RAM for      wfcinit/wfcrot:       1.16 MB

     Dynamical RAM for           addusdens:       8.74 MB

     Estimated static dynamical RAM per process >      31.72 MB

     Estimated max dynamical RAM per process >      40.45 MB

     Estimated total dynamical RAM >       2.53 GB

     Check: negative core charge=   -0.000015
     Generating pointlists ...
     new r_m :   0.0448 (alat units)  2.3181 (a.u.) for type    1
     new r_m :   0.0448 (alat units)  2.3181 (a.u.) for type    2
     new r_m :   0.0456 (alat units)  2.3625 (a.u.) for type    3
     new r_m :   0.0448 (alat units)  2.3181 (a.u.) for type    4

     The potential is recalculated from file :
     ./tmp/MnBi2Te4.save/charge-density

     Starting wfcs are   88 randomized atomic wfcs
     Checking if some PAW data can be deallocated... 
       PAW data deallocated on   59 nodes for type:  1
       PAW data deallocated on   59 nodes for type:  2
       PAW data deallocated on   44 nodes for type:  3
       PAW data deallocated on   30 nodes for type:  4

     Band Structure Calculation
     Davidson diagonalization with overlap

     Computing kpt #:     1  of   302
     total cpu time spent up to now is       50.4 secs

     Computing kpt #:     2  of   302
     total cpu time spent up to now is       73.1 secs

     Computing kpt #:     3  of   302
     total cpu time spent up to now is       96.5 secs

     Computing kpt #:     4  of   302
     total cpu time spent up to now is      118.1 secs

     Computing kpt #:     5  of   302
     total cpu time spent up to now is      139.9 secs

     Computing kpt #:     6  of   302
     total cpu time spent up to now is      172.8 secs

     Computing kpt #:     7  of   302
     c_bands:  1 eigenvalues not converged
     total cpu time spent up to now is      196.9 secs

     Computing kpt #:     8  of   302
     total cpu time spent up to now is      217.9 secs

     Computing kpt #:     9  of   302
     total cpu time spent up to now is      238.6 secs

     Computing kpt #:    10  of   302
     total cpu time spent up to now is      259.9 secs

     Computing kpt #:    11  of   302
     c_bands:  1 eigenvalues not converged
     total cpu time spent up to now is      283.0 secs

     Computing kpt #:    12  of   302
     c_bands:  1 eigenvalues not converged
     total cpu time spent up to now is      306.2 secs

     Computing kpt #:    13  of   302
     total cpu time spent up to now is      328.1 secs

     Computing kpt #:    14  of   302
     total cpu time spent up to now is      347.9 secs

     Computing kpt #:    15  of   302
     total cpu time spent up to now is      369.5 secs

     Computing kpt #:    16  of   302
     total cpu time spent up to now is      388.6 secs

     Computing kpt #:    17  of   302
     total cpu time spent up to now is      407.5 secs

     Computing kpt #:    18  of   302
     total cpu time spent up to now is      425.9 secs

     Computing kpt #:    19  of   302
     total cpu time spent up to now is      443.8 secs

     Computing kpt #:    20  of   302
     total cpu time spent up to now is      462.9 secs

     Computing kpt #:    21  of   302
     total cpu time spent up to now is      480.9 secs

     Computing kpt #:    22  of   302
     total cpu time spent up to now is      498.6 secs

     Computing kpt #:    23  of   302
     total cpu time spent up to now is      516.1 secs

     Computing kpt #:    24  of   302
     total cpu time spent up to now is      533.8 secs

     Computing kpt #:    25  of   302
     total cpu time spent up to now is      554.9 secs

     Computing kpt #:    26  of   302
     total cpu time spent up to now is      572.1 secs

     Computing kpt #:    27  of   302
     total cpu time spent up to now is      589.7 secs

     Computing kpt #:    28  of   302
     total cpu time spent up to now is      607.4 secs

     Computing kpt #:    29  of   302
     total cpu time spent up to now is      626.6 secs

     Computing kpt #:    30  of   302
     total cpu time spent up to now is      644.9 secs

     Computing kpt #:    31  of   302
     total cpu time spent up to now is      663.0 secs

     Computing kpt #:    32  of   302
     total cpu time spent up to now is      681.3 secs

     Computing kpt #:    33  of   302
     total cpu time spent up to now is      700.3 secs

     Computing kpt #:    34  of   302
     total cpu time spent up to now is      720.6 secs

     Computing kpt #:    35  of   302
     total cpu time spent up to now is      740.5 secs

     Computing kpt #:    36  of   302
     total cpu time spent up to now is      760.6 secs

     Computing kpt #:    37  of   302
     c_bands:  1 eigenvalues not converged
     total cpu time spent up to now is      783.8 secs

     Computing kpt #:    38  of   302
     total cpu time spent up to now is      806.7 secs

     Computing kpt #:    39  of   302
     total cpu time spent up to now is      858.7 secs

     Computing kpt #:    40  of   302
     total cpu time spent up to now is      880.3 secs

     Computing kpt #:    41  of   302
     total cpu time spent up to now is      903.0 secs

     Computing kpt #:    42  of   302
     total cpu time spent up to now is      927.2 secs

     Computing kpt #:    43  of   302
     c_bands:  1 eigenvalues not converged
     total cpu time spent up to now is      951.0 secs

     Computing kpt #:    44  of   302
     total cpu time spent up to now is      973.7 secs

     Computing kpt #:    45  of   302
     total cpu time spent up to now is      996.0 secs

     Computing kpt #:    46  of   302
     total cpu time spent up to now is     1019.4 secs

     Computing kpt #:    47  of   302
     c_bands:  1 eigenvalues not converged
     total cpu time spent up to now is     1044.4 secs

     Computing kpt #:    48  of   302
     total cpu time spent up to now is     1068.0 secs

     Computing kpt #:    49  of   302
     c_bands:  1 eigenvalues not converged
     total cpu time spent up to now is     1093.3 secs

     Computing kpt #:    50  of   302
     c_bands:  1 eigenvalues not converged
     total cpu time spent up to now is     1118.6 secs

     Computing kpt #:    51  of   302
     total cpu time spent up to now is     1141.8 secs

     Computing kpt #:    52  of   302
     total cpu time spent up to now is     1164.8 secs

     Computing kpt #:    53  of   302
     total cpu time spent up to now is     1188.5 secs

     Computing kpt #:    54  of   302
     total cpu time spent up to now is     1212.2 secs

     Computing kpt #:    55  of   302
     total cpu time spent up to now is     1237.4 secs

     Computing kpt #:    56  of   302
     total cpu time spent up to now is     1261.3 secs

     Computing kpt #:    57  of   302
     total cpu time spent up to now is     1286.6 secs

     Computing kpt #:    58  of   302
     total cpu time spent up to now is     1311.6 secs

     Computing kpt #:    59  of   302
     total cpu time spent up to now is     1335.3 secs

     Computing kpt #:    60  of   302
     total cpu time spent up to now is     1359.9 secs

     Computing kpt #:    61  of   302
     total cpu time spent up to now is     1383.1 secs

     Computing kpt #:    62  of   302
     total cpu time spent up to now is     1408.0 secs

     Computing kpt #:    63  of   302
     total cpu time spent up to now is     1430.0 secs

     Computing kpt #:    64  of   302
     total cpu time spent up to now is     1451.9 secs

     Computing kpt #:    65  of   302
     total cpu time spent up to now is     1474.9 secs

     Computing kpt #:    66  of   302
     total cpu time spent up to now is     1498.1 secs

     Computing kpt #:    67  of   302
     c_bands:  1 eigenvalues not converged
     total cpu time spent up to now is     1522.1 secs

     Computing kpt #:    68  of   302
     c_bands:  1 eigenvalues not converged
     total cpu time spent up to now is     1546.6 secs

     Computing kpt #:    69  of   302
     total cpu time spent up to now is     1570.7 secs

     Computing kpt #:    70  of   302
     total cpu time spent up to now is     1593.3 secs

     Computing kpt #:    71  of   302
     total cpu time spent up to now is     1615.7 secs

     Computing kpt #:    72  of   302
     total cpu time spent up to now is     1638.2 secs

     Computing kpt #:    73  of   302
     total cpu time spent up to now is     1660.7 secs

     Computing kpt #:    74  of   302
     total cpu time spent up to now is     1807.9 secs

     Computing kpt #:    75  of   302
     total cpu time spent up to now is     1980.1 secs

     Computing kpt #:    76  of   302
     total cpu time spent up to now is     2132.8 secs

     Computing kpt #:    77  of   302
     total cpu time spent up to now is     2296.9 secs

     Computing kpt #:    78  of   302
     total cpu time spent up to now is     2471.4 secs

     Computing kpt #:    79  of   302
     total cpu time spent up to now is     2640.3 secs

     Computing kpt #:    80  of   302
     total cpu time spent up to now is     2793.8 secs

     Computing kpt #:    81  of   302
     total cpu time spent up to now is     2964.4 secs

     Computing kpt #:    82  of   302
     total cpu time spent up to now is     3127.8 secs

     Computing kpt #:    83  of   302
     total cpu time spent up to now is     3290.2 secs

     Computing kpt #:    84  of   302
     total cpu time spent up to now is     3452.9 secs

     Computing kpt #:    85  of   302
     total cpu time spent up to now is     3611.9 secs

     Computing kpt #:    86  of   302
     total cpu time spent up to now is     3758.9 secs

     Computing kpt #:    87  of   302
     total cpu time spent up to now is     3908.9 secs

     Computing kpt #:    88  of   302
     total cpu time spent up to now is     4057.1 secs

     Computing kpt #:    89  of   302
     total cpu time spent up to now is     4203.0 secs

     Computing kpt #:    90  of   302
     total cpu time spent up to now is     4350.7 secs

     Computing kpt #:    91  of   302
     total cpu time spent up to now is     4497.6 secs

     Computing kpt #:    92  of   302
     total cpu time spent up to now is     4643.0 secs

     Computing kpt #:    93  of   302
     total cpu time spent up to now is     4763.1 secs

     Computing kpt #:    94  of   302
     total cpu time spent up to now is     4780.9 secs

     Computing kpt #:    95  of   302
     total cpu time spent up to now is     4798.7 secs

     Computing kpt #:    96  of   302
     total cpu time spent up to now is     4816.4 secs

     Computing kpt #:    97  of   302
     total cpu time spent up to now is     4833.8 secs

     Computing kpt #:    98  of   302
     total cpu time spent up to now is     4851.3 secs

     Computing kpt #:    99  of   302
     total cpu time spent up to now is     4869.4 secs

     Computing kpt #:   100  of   302
     total cpu time spent up to now is     4887.9 secs

     Computing kpt #:   101  of   302
     total cpu time spent up to now is     4906.0 secs

     Computing kpt #:   102  of   302
     total cpu time spent up to now is     4925.1 secs

     Computing kpt #:   103  of   302
     total cpu time spent up to now is     4942.7 secs

     Computing kpt #:   104  of   302
     total cpu time spent up to now is     4960.4 secs

     Computing kpt #:   105  of   302
     total cpu time spent up to now is     4979.6 secs

     Computing kpt #:   106  of   302
     total cpu time spent up to now is     4998.0 secs

     Computing kpt #:   107  of   302
     total cpu time spent up to now is     5015.2 secs

     Computing kpt #:   108  of   302
     total cpu time spent up to now is     5033.5 secs

     Computing kpt #:   109  of   302
     total cpu time spent up to now is     5051.1 secs

     Computing kpt #:   110  of   302
     total cpu time spent up to now is     5069.3 secs

     Computing kpt #:   111  of   302
     total cpu time spent up to now is     5087.5 secs

     Computing kpt #:   112  of   302
     total cpu time spent up to now is     5106.0 secs

     Computing kpt #:   113  of   302
     total cpu time spent up to now is     5124.7 secs

     Computing kpt #:   114  of   302
     total cpu time spent up to now is     5144.7 secs

     Computing kpt #:   115  of   302
     total cpu time spent up to now is     5163.3 secs

     Computing kpt #:   116  of   302
     total cpu time spent up to now is     5181.7 secs

     Computing kpt #:   117  of   302
     total cpu time spent up to now is     5205.0 secs

     Computing kpt #:   118  of   302
     total cpu time spent up to now is     5221.8 secs

     Computing kpt #:   119  of   302
     total cpu time spent up to now is     5238.6 secs

     Computing kpt #:   120  of   302
     total cpu time spent up to now is     5255.3 secs

     Computing kpt #:   121  of   302
     total cpu time spent up to now is     5272.0 secs

     Computing kpt #:   122  of   302
     total cpu time spent up to now is     5289.1 secs

     Computing kpt #:   123  of   302
     total cpu time spent up to now is     5395.6 secs

     Computing kpt #:   124  of   302
     total cpu time spent up to now is     5539.0 secs

     Computing kpt #:   125  of   302
     total cpu time spent up to now is     5677.8 secs

     Computing kpt #:   126  of   302
     total cpu time spent up to now is     5831.8 secs

     Computing kpt #:   127  of   302
     total cpu time spent up to now is     5974.0 secs

     Computing kpt #:   128  of   302
     total cpu time spent up to now is     6117.8 secs

     Computing kpt #:   129  of   302
     total cpu time spent up to now is     6261.5 secs

     Computing kpt #:   130  of   302
     total cpu time spent up to now is     6407.8 secs

     Computing kpt #:   131  of   302
     total cpu time spent up to now is     6555.2 secs

     Computing kpt #:   132  of   302
     total cpu time spent up to now is     6704.1 secs

     Computing kpt #:   133  of   302
     total cpu time spent up to now is     6853.1 secs

     Computing kpt #:   134  of   302
     total cpu time spent up to now is     7021.3 secs

     Computing kpt #:   135  of   302
     total cpu time spent up to now is     7199.1 secs

     Computing kpt #:   136  of   302
     total cpu time spent up to now is     7351.8 secs

     Computing kpt #:   137  of   302
     total cpu time spent up to now is     7521.1 secs

     Computing kpt #:   138  of   302
     total cpu time spent up to now is     7690.0 secs

     Computing kpt #:   139  of   302
     total cpu time spent up to now is     7860.1 secs

     Computing kpt #:   140  of   302
     total cpu time spent up to now is     8047.1 secs

     Computing kpt #:   141  of   302
     total cpu time spent up to now is     8227.1 secs

     Computing kpt #:   142  of   302
     total cpu time spent up to now is     8414.0 secs

     Computing kpt #:   143  of   302
     c_bands:  1 eigenvalues not converged
     total cpu time spent up to now is     8618.8 secs

     Computing kpt #:   144  of   302
     total cpu time spent up to now is     8806.3 secs

     Computing kpt #:   145  of   302
     total cpu time spent up to now is     8987.5 secs

     Computing kpt #:   146  of   302
     total cpu time spent up to now is     9177.3 secs

     Computing kpt #:   147  of   302
     total cpu time spent up to now is     9370.5 secs

     Computing kpt #:   148  of   302
     total cpu time spent up to now is     9565.5 secs

     Computing kpt #:   149  of   302
     total cpu time spent up to now is     9756.4 secs

     Computing kpt #:   150  of   302
     total cpu time spent up to now is     9934.3 secs

     Computing kpt #:   151  of   302
     total cpu time spent up to now is    10117.3 secs

     Computing kpt #:   152  of   302
     total cpu time spent up to now is    10297.1 secs

     Computing kpt #:   153  of   302
     total cpu time spent up to now is    10487.4 secs

     Computing kpt #:   154  of   302
     total cpu time spent up to now is    10680.0 secs

     Computing kpt #:   155  of   302
     total cpu time spent up to now is    10867.2 secs

     Computing kpt #:   156  of   302
     total cpu time spent up to now is    11056.6 secs

     Computing kpt #:   157  of   302
     total cpu time spent up to now is    11243.4 secs

     Computing kpt #:   158  of   302
     total cpu time spent up to now is    11432.9 secs

     Computing kpt #:   159  of   302
     total cpu time spent up to now is    11600.7 secs

     Computing kpt #:   160  of   302
     total cpu time spent up to now is    11772.5 secs

     Computing kpt #:   161  of   302
     total cpu time spent up to now is    11936.2 secs

     Computing kpt #:   162  of   302
     c_bands:  1 eigenvalues not converged
     total cpu time spent up to now is    11987.9 secs

     Computing kpt #:   163  of   302
     c_bands:  1 eigenvalues not converged
     total cpu time spent up to now is    12010.8 secs

     Computing kpt #:   164  of   302
     c_bands:  1 eigenvalues not converged
     total cpu time spent up to now is    12034.0 secs

     Computing kpt #:   165  of   302
     total cpu time spent up to now is    12056.0 secs

     Computing kpt #:   166  of   302
     total cpu time spent up to now is    12076.5 secs

     Computing kpt #:   167  of   302
     total cpu time spent up to now is    12095.4 secs

     Computing kpt #:   168  of   302
     total cpu time spent up to now is    12114.0 secs

     Computing kpt #:   169  of   302
     total cpu time spent up to now is    12131.8 secs

     Computing kpt #:   170  of   302
     total cpu time spent up to now is    12150.1 secs

     Computing kpt #:   171  of   302
     total cpu time spent up to now is    12168.2 secs

     Computing kpt #:   172  of   302
     total cpu time spent up to now is    12186.5 secs

     Computing kpt #:   173  of   302
     total cpu time spent up to now is    12203.9 secs

     Computing kpt #:   174  of   302
     total cpu time spent up to now is    12221.3 secs

     Computing kpt #:   175  of   302
     total cpu time spent up to now is    12239.1 secs

     Computing kpt #:   176  of   302
     total cpu time spent up to now is    12256.8 secs

     Computing kpt #:   177  of   302
     total cpu time spent up to now is    12274.3 secs

     Computing kpt #:   178  of   302
     total cpu time spent up to now is    12292.0 secs

     Computing kpt #:   179  of   302
     total cpu time spent up to now is    12309.9 secs

     Computing kpt #:   180  of   302
     total cpu time spent up to now is    12329.1 secs

     Computing kpt #:   181  of   302
     total cpu time spent up to now is    12347.1 secs

     Computing kpt #:   182  of   302
     total cpu time spent up to now is    12366.8 secs

     Computing kpt #:   183  of   302
     total cpu time spent up to now is    12385.1 secs

     Computing kpt #:   184  of   302
     total cpu time spent up to now is    12403.7 secs

     Computing kpt #:   185  of   302
     total cpu time spent up to now is    12423.6 secs

     Computing kpt #:   186  of   302
     total cpu time spent up to now is    12443.8 secs

     Computing kpt #:   187  of   302
     total cpu time spent up to now is    12465.1 secs

     Computing kpt #:   188  of   302
     total cpu time spent up to now is    12511.9 secs

     Computing kpt #:   189  of   302
     total cpu time spent up to now is    12579.7 secs

     Computing kpt #:   190  of   302
     total cpu time spent up to now is    12601.0 secs

     Computing kpt #:   191  of   302
     total cpu time spent up to now is    12622.7 secs

     Computing kpt #:   192  of   302
     total cpu time spent up to now is    12644.9 secs

     Computing kpt #:   193  of   302
     total cpu time spent up to now is    12668.4 secs

     Computing kpt #:   194  of   302
     c_bands:  1 eigenvalues not converged
     total cpu time spent up to now is    12692.6 secs

     Computing kpt #:   195  of   302
     total cpu time spent up to now is    12714.2 secs

     Computing kpt #:   196  of   302
     total cpu time spent up to now is    12736.2 secs

     Computing kpt #:   197  of   302
     total cpu time spent up to now is    12759.3 secs

     Computing kpt #:   198  of   302
     total cpu time spent up to now is    12783.1 secs

     Computing kpt #:   199  of   302
     total cpu time spent up to now is    12806.8 secs

     Computing kpt #:   200  of   302
     c_bands:  1 eigenvalues not converged
     total cpu time spent up to now is    12832.0 secs

     Computing kpt #:   201  of   302
     total cpu time spent up to now is    12855.8 secs

     Computing kpt #:   202  of   302
     total cpu time spent up to now is    12879.1 secs

     Computing kpt #:   203  of   302
     total cpu time spent up to now is    12902.4 secs

     Computing kpt #:   204  of   302
     total cpu time spent up to now is    12926.6 secs

     Computing kpt #:   205  of   302
     total cpu time spent up to now is    12950.5 secs

     Computing kpt #:   206  of   302
     total cpu time spent up to now is    12974.5 secs

     Computing kpt #:   207  of   302
     total cpu time spent up to now is    12998.6 secs

     Computing kpt #:   208  of   302
     total cpu time spent up to now is    13022.3 secs

     Computing kpt #:   209  of   302
     total cpu time spent up to now is    13046.3 secs

     Computing kpt #:   210  of   302
     total cpu time spent up to now is    13071.0 secs

     Computing kpt #:   211  of   302
     total cpu time spent up to now is    13094.2 secs

     Computing kpt #:   212  of   302
     total cpu time spent up to now is    13117.6 secs

     Computing kpt #:   213  of   302
     total cpu time spent up to now is    13141.2 secs

     Computing kpt #:   214  of   302
     total cpu time spent up to now is    13163.5 secs

     Computing kpt #:   215  of   302
     total cpu time spent up to now is    13185.8 secs

     Computing kpt #:   216  of   302
     total cpu time spent up to now is    13277.7 secs

     Computing kpt #:   217  of   302
     total cpu time spent up to now is    13423.0 secs

     Computing kpt #:   218  of   302
     c_bands:  1 eigenvalues not converged
     total cpu time spent up to now is    13447.3 secs

     Computing kpt #:   219  of   302
     c_bands:  1 eigenvalues not converged
     total cpu time spent up to now is    13471.2 secs

     Computing kpt #:   220  of   302
     total cpu time spent up to now is    13495.3 secs

     Computing kpt #:   221  of   302
     total cpu time spent up to now is    13519.6 secs

     Computing kpt #:   222  of   302
     total cpu time spent up to now is    13543.5 secs

     Computing kpt #:   223  of   302
     total cpu time spent up to now is    13565.5 secs

     Computing kpt #:   224  of   302
     total cpu time spent up to now is    13588.2 secs

     Computing kpt #:   225  of   302
     total cpu time spent up to now is    13610.8 secs

     Computing kpt #:   226  of   302
     total cpu time spent up to now is    13632.0 secs

     Computing kpt #:   227  of   302
     total cpu time spent up to now is    13651.8 secs

     Computing kpt #:   228  of   302
     total cpu time spent up to now is    13688.4 secs

     Computing kpt #:   229  of   302
     total cpu time spent up to now is    13710.4 secs

     Computing kpt #:   230  of   302
     total cpu time spent up to now is    13731.9 secs

     Computing kpt #:   231  of   302
     total cpu time spent up to now is    13753.8 secs

     Computing kpt #:   232  of   302
     total cpu time spent up to now is    13775.7 secs

     Computing kpt #:   233  of   302
     total cpu time spent up to now is    13795.4 secs

     Computing kpt #:   234  of   302
     total cpu time spent up to now is    13817.3 secs

     Computing kpt #:   235  of   302
     total cpu time spent up to now is    13836.7 secs

     Computing kpt #:   236  of   302
     total cpu time spent up to now is    13858.0 secs

     Computing kpt #:   237  of   302
     total cpu time spent up to now is    13876.1 secs

     Computing kpt #:   238  of   302
     total cpu time spent up to now is    13894.6 secs

     Computing kpt #:   239  of   302
     total cpu time spent up to now is    13913.0 secs

     Computing kpt #:   240  of   302
     total cpu time spent up to now is    13931.3 secs

     Computing kpt #:   241  of   302
     total cpu time spent up to now is    13955.9 secs

     Computing kpt #:   242  of   302
     total cpu time spent up to now is    13974.0 secs

     Computing kpt #:   243  of   302
     total cpu time spent up to now is    13992.2 secs

     Computing kpt #:   244  of   302
     total cpu time spent up to now is    14010.1 secs

     Computing kpt #:   245  of   302
     total cpu time spent up to now is    14027.9 secs

     Computing kpt #:   246  of   302
     total cpu time spent up to now is    14045.7 secs

     Computing kpt #:   247  of   302
     total cpu time spent up to now is    14063.3 secs

     Computing kpt #:   248  of   302
     total cpu time spent up to now is    14080.9 secs

     Computing kpt #:   249  of   302
     total cpu time spent up to now is    14098.4 secs

     Computing kpt #:   250  of   302
     total cpu time spent up to now is    14116.0 secs

     Computing kpt #:   251  of   302
     total cpu time spent up to now is    14134.6 secs

     Computing kpt #:   252  of   302
     total cpu time spent up to now is    14151.9 secs

     Computing kpt #:   253  of   302
     total cpu time spent up to now is    14171.0 secs

     Computing kpt #:   254  of   302
     total cpu time spent up to now is    14188.8 secs

     Computing kpt #:   255  of   302
     total cpu time spent up to now is    14206.5 secs

     Computing kpt #:   256  of   302
     total cpu time spent up to now is    14225.4 secs

     Computing kpt #:   257  of   302
     total cpu time spent up to now is    14244.3 secs

     Computing kpt #:   258  of   302
     total cpu time spent up to now is    14262.8 secs

     Computing kpt #:   259  of   302
     total cpu time spent up to now is    14280.2 secs

     Computing kpt #:   260  of   302
     total cpu time spent up to now is    14298.5 secs

     Computing kpt #:   261  of   302
     total cpu time spent up to now is    14317.0 secs

     Computing kpt #:   262  of   302
     total cpu time spent up to now is    14335.5 secs

     Computing kpt #:   263  of   302
     total cpu time spent up to now is    14354.2 secs

     Computing kpt #:   264  of   302
     total cpu time spent up to now is    14372.9 secs

     Computing kpt #:   265  of   302
     total cpu time spent up to now is    14391.6 secs

     Computing kpt #:   266  of   302
     total cpu time spent up to now is    14410.0 secs

     Computing kpt #:   267  of   302
     total cpu time spent up to now is    14428.3 secs

     Computing kpt #:   268  of   302
     total cpu time spent up to now is    14445.5 secs

     Computing kpt #:   269  of   302
     total cpu time spent up to now is    14462.3 secs

     Computing kpt #:   270  of   302
     total cpu time spent up to now is    14479.0 secs

     Computing kpt #:   271  of   302
     total cpu time spent up to now is    14495.7 secs

     Computing kpt #:   272  of   302
     total cpu time spent up to now is    14548.9 secs

     Computing kpt #:   273  of   302
     total cpu time spent up to now is    14677.9 secs

     Computing kpt #:   274  of   302
     total cpu time spent up to now is    14711.9 secs

     Computing kpt #:   275  of   302
     total cpu time spent up to now is    14853.0 secs

     Computing kpt #:   276  of   302
     total cpu time spent up to now is    14995.2 secs

     Computing kpt #:   277  of   302
     total cpu time spent up to now is    15137.8 secs

     Computing kpt #:   278  of   302
     total cpu time spent up to now is    15277.0 secs

     Computing kpt #:   279  of   302
     total cpu time spent up to now is    15414.2 secs

     Computing kpt #:   280  of   302
     total cpu time spent up to now is    15549.9 secs

     Computing kpt #:   281  of   302
     total cpu time spent up to now is    15576.8 secs

     Computing kpt #:   282  of   302
     total cpu time spent up to now is    15594.8 secs

     Computing kpt #:   283  of   302
     total cpu time spent up to now is    15613.2 secs

     Computing kpt #:   284  of   302
     total cpu time spent up to now is    15631.5 secs

     Computing kpt #:   285  of   302
     total cpu time spent up to now is    15651.4 secs

     Computing kpt #:   286  of   302
     total cpu time spent up to now is    15673.0 secs

     Computing kpt #:   287  of   302
     total cpu time spent up to now is    15693.0 secs

     Computing kpt #:   288  of   302
     total cpu time spent up to now is    15713.9 secs

     Computing kpt #:   289  of   302
     total cpu time spent up to now is    15735.1 secs

     Computing kpt #:   290  of   302
     total cpu time spent up to now is    15757.2 secs

     Computing kpt #:   291  of   302
     total cpu time spent up to now is    15779.5 secs

     Computing kpt #:   292  of   302
     total cpu time spent up to now is    15801.3 secs

     Computing kpt #:   293  of   302
     total cpu time spent up to now is    15824.2 secs

     Computing kpt #:   294  of   302
     total cpu time spent up to now is    15847.3 secs

     Computing kpt #:   295  of   302
     total cpu time spent up to now is    15870.3 secs

     Computing kpt #:   296  of   302
     total cpu time spent up to now is    15894.1 secs

     Computing kpt #:   297  of   302
     total cpu time spent up to now is    15917.8 secs

     Computing kpt #:   298  of   302
     total cpu time spent up to now is    15940.4 secs

     Computing kpt #:   299  of   302
     total cpu time spent up to now is    15964.3 secs

     Computing kpt #:   300  of   302
     total cpu time spent up to now is    15986.7 secs

     Computing kpt #:   301  of   302
     total cpu time spent up to now is    16008.5 secs

     Computing kpt #:   302  of   302
     total cpu time spent up to now is    16031.0 secs

     ethr =  7.25E-11,  avg # of iterations = 75.9

     total cpu time spent up to now is    16031.0 secs

     End of band structure calculation

 ------ SPIN UP ------------


          k = 0.0000 0.0000 0.0000 ( 23485 PWs)   bands (ev):

   -73.9662 -69.3606 -42.7201 -42.7150 -42.7137 -38.2019 -38.1976 -38.1830
   -15.5685 -15.5684 -15.5683 -15.5682 -15.5668 -15.5667 -15.5654 -15.5653
   -15.5575 -15.5572 -15.5550 -15.5547 -15.5530 -15.5528 -15.5524 -15.5522
   -15.5480 -15.5478 -15.5475 -15.5473  -5.6083  -5.5789  -5.4122  -5.3675
    -3.8483  -3.6340  -3.3858  -3.1064  -1.5822  -1.2441  -0.8978  -0.6275
     3.6992   4.2138   4.2583   4.2589   4.8608   4.8628   5.0794   5.1802
     5.5691   5.8309   5.8323   5.9347   5.9351   6.0184   6.0197   6.1488
     6.1491   6.2185   6.3095   6.3104   6.5729   6.9131   6.9138   7.0281
     7.0288   7.4722   7.4868   7.4869   7.7412   8.3182   8.5718   8.5730
     8.5923   8.8407   8.8448   8.8728   8.8732   8.9062   8.9866   9.1439
     9.2707   9.2713   9.3146

          k = 0.1261 0.0731-0.0100 ( 23471 PWs)   bands (ev):

   -73.9662 -69.3606 -42.7201 -42.7150 -42.7137 -38.2019 -38.1976 -38.1830
   -15.5685 -15.5683 -15.5683 -15.5682 -15.5668 -15.5667 -15.5653 -15.5652
   -15.5575 -15.5572 -15.5549 -15.5546 -15.5529 -15.5528 -15.5524 -15.5523
   -15.5479 -15.5478 -15.5474 -15.5474  -5.6048  -5.5754  -5.4087  -5.3641
    -3.8457  -3.6317  -3.3838  -3.1048  -1.5830  -1.2463  -0.9009  -0.6322
     3.6990   4.2108   4.2556   4.2595   4.8594   4.8618   5.0720   5.1733
     5.5125   5.8208   5.8221   5.9206   5.9304   5.9666   6.0011   6.1515
     6.1638   6.2022   6.3034   6.3207   6.6700   6.8702   6.9189   6.9763
     7.0180   7.4303   7.4892   7.5015   7.7428   8.3573   8.5682   8.5727
     8.5872   8.8291   8.8363   8.9051   8.9072   8.9196   9.0370   9.1336
     9.2295   9.2321   9.3561

          k = 0.2521 0.1462-0.0200 ( 23466 PWs)   bands (ev):

   -73.9662 -69.3606 -42.7201 -42.7150 -42.7137 -38.2019 -38.1976 -38.1830
   -15.5684 -15.5683 -15.5682 -15.5682 -15.5669 -15.5669 -15.5652 -15.5651
   -15.5573 -15.5571 -15.5548 -15.5545 -15.5529 -15.5528 -15.5524 -15.5524
   -15.5479 -15.5478 -15.5475 -15.5474  -5.5942  -5.5649  -5.3984  -5.3538
    -3.8380  -3.6245  -3.3779  -3.1000  -1.5856  -1.2529  -0.9100  -0.6461
     3.6982   4.2016   4.2473   4.2613   4.8549   4.8587   5.0479   5.1503
     5.3852   5.7737   5.7959   5.8226   5.9069   5.9692   5.9695   5.9933
     6.1406   6.2845   6.2930   6.4394   6.6962   6.8505   6.8987   6.9283
     6.9948   7.3053   7.4933   7.5340   7.7156   8.4377   8.5800   8.5845
     8.6169   8.8194   8.8348   8.9116   8.9722   8.9803   9.0870   9.1646
     9.1851   9.2313   9.4117

          k = 0.3782 0.2192-0.0300 ( 23449 PWs)   bands (ev):

   -73.9662 -69.3606 -42.7201 -42.7150 -42.7137 -38.2020 -38.1976 -38.1830
   -15.5685 -15.5685 -15.5680 -15.5680 -15.5671 -15.5670 -15.5650 -15.5649
   -15.5571 -15.5569 -15.5546 -15.5544 -15.5529 -15.5528 -15.5524 -15.5524
   -15.5479 -15.5478 -15.5475 -15.5475  -5.5766  -5.5474  -5.3812  -5.3368
    -3.8251  -3.6127  -3.3682  -3.0920  -1.5901  -1.2640  -0.9254  -0.6693
     3.6960   4.1865   4.2338   4.2643   4.8458   4.8536   5.0017   5.0962
     5.2545   5.6539   5.7467   5.7563   5.8134   5.8529   5.9458   6.0061
     6.0992   6.2896   6.3447   6.4910   6.5709   6.7976   6.9160   6.9834
     7.0331   7.1543   7.4907   7.4951   7.6725   8.5025   8.6030   8.6063
     8.7369   8.8036   8.8417   8.9216   9.0081   9.0459   9.0948   9.1622
     9.2506   9.3133   9.4628

          k = 0.5042 0.2923-0.0400 ( 23456 PWs)   bands (ev):

   -73.9662 -69.3606 -42.7202 -42.7150 -42.7137 -38.2020 -38.1976 -38.1830
   -15.5688 -15.5688 -15.5677 -15.5677 -15.5673 -15.5673 -15.5647 -15.5647
   -15.5569 -15.5567 -15.5544 -15.5541 -15.5529 -15.5528 -15.5525 -15.5524
   -15.5479 -15.5478 -15.5475 -15.5474  -5.5521  -5.5229  -5.3572  -5.3131
    -3.8073  -3.5963  -3.3548  -3.0811  -1.5967  -1.2798  -0.9474  -0.7019
     3.6912   4.1659   4.2146   4.2683   4.8262   4.8468   4.9288   4.9825
     5.1767   5.5223   5.5869   5.7049   5.7510   5.7830   5.9192   6.0033
     6.0368   6.2767   6.2877   6.4116   6.5322   6.8767   6.8801   6.9819
     6.9842   7.1482   7.4012   7.4936   7.6164   8.4900   8.6429   8.7112
     8.7875   8.8515   8.8551   8.9519   9.0038   9.0682   9.1394   9.2184
     9.3521   9.3959   9.5051

          k = 0.6303 0.3654-0.0500 ( 23429 PWs)   bands (ev):

   -73.9662 -69.3606 -42.7202 -42.7150 -42.7137 -38.2020 -38.1977 -38.1829
   -15.5691 -15.5690 -15.5676 -15.5676 -15.5673 -15.5673 -15.5644 -15.5643
   -15.5566 -15.5564 -15.5540 -15.5538 -15.5530 -15.5529 -15.5524 -15.5524
   -15.5480 -15.5479 -15.5474 -15.5473  -5.5206  -5.4916  -5.3265  -5.2826
    -3.7847  -3.5754  -3.3378  -3.0673  -1.6061  -1.3006  -0.9763  -0.7436
     3.6820   4.1394   4.1891   4.2731   4.7617   4.8382   4.8400   4.8576
     5.1341   5.3683   5.4630   5.6426   5.6912   5.7077   5.8773   5.9155
     5.9693   6.1756   6.2802   6.2844   6.6013   6.7772   6.8415   6.9746
     7.0079   7.1238   7.3828   7.4907   7.5379   8.4519   8.6932   8.7595
     8.8538   8.8735   8.8937   8.9679   9.0654   9.0929   9.1721   9.3278
     9.3794   9.5358   9.5995

          k = 0.7563 0.4385-0.0600 ( 23445 PWs)   bands (ev):

   -73.9662 -69.3606 -42.7202 -42.7150 -42.7137 -38.2020 -38.1977 -38.1829
   -15.5695 -15.5695 -15.5681 -15.5680 -15.5670 -15.5670 -15.5640 -15.5640
   -15.5562 -15.5560 -15.5537 -15.5535 -15.5531 -15.5531 -15.5523 -15.5523
   -15.5481 -15.5481 -15.5473 -15.5472  -5.4822  -5.4535  -5.2890  -5.2455
    -3.7574  -3.5503  -3.3176  -3.0509  -1.6186  -1.3268  -1.0123  -0.7944
     3.6668   4.1033   4.1580   4.2786   4.6341   4.6950   4.8185   4.8282
     5.0976   5.2062   5.3837   5.5706   5.6055   5.6309   5.7485   5.8153
     5.9062   6.0701   6.2375   6.2662   6.6155   6.6627   6.8063   6.9479
     6.9816   7.0719   7.4109   7.4666   7.4886   8.4403   8.7434   8.7501
     8.8450   8.8933   8.9572   9.0037   9.0831   9.1660   9.2858   9.4376
     9.4497   9.5540   9.7599

          k = 0.8824 0.5116-0.0700 ( 23445 PWs)   bands (ev):

   -73.9662 -69.3606 -42.7202 -42.7150 -42.7137 -38.2021 -38.1977 -38.1829
   -15.5700 -15.5700 -15.5686 -15.5685 -15.5666 -15.5665 -15.5637 -15.5636
   -15.5557 -15.5556 -15.5534 -15.5533 -15.5532 -15.5531 -15.5521 -15.5521
   -15.5483 -15.5483 -15.5471 -15.5471  -5.4371  -5.4086  -5.2450  -5.2020
    -3.7258  -3.5213  -3.2943  -3.0323  -1.6349  -1.3586  -1.0558  -0.8542
     3.6437   4.0502   4.1233   4.2845   4.4881   4.5595   4.7773   4.8171
     5.0252   5.0879   5.3280   5.4859   5.4916   5.5531   5.5686   5.7397
     5.8452   5.9774   6.1847   6.2475   6.5042   6.6964   6.7746   6.8707
     6.9049   7.0014   7.3827   7.4627   7.4869   8.4709   8.7393   8.7848
     8.8138   8.9104   8.9777   9.0165   9.1339   9.2437   9.4268   9.5566
     9.5642   9.5782   9.7812

          k = 1.0084 0.5846-0.0800 ( 23456 PWs)   bands (ev):

   -73.9662 -69.3606 -42.7203 -42.7150 -42.7137 -38.2021 -38.1977 -38.1829
   -15.5705 -15.5705 -15.5691 -15.5691 -15.5661 -15.5660 -15.5632 -15.5632
   -15.5554 -15.5552 -15.5536 -15.5535 -15.5528 -15.5527 -15.5519 -15.5519
   -15.5485 -15.5484 -15.5469 -15.5468  -5.3852  -5.3571  -5.1946  -5.1521
    -3.6900  -3.4886  -3.2685  -3.0118  -1.6556  -1.3966  -1.1070  -0.9228
     3.6110   3.9759   4.0823   4.2904   4.3382   4.4489   4.7176   4.8052
     4.8877   5.0447   5.2804   5.3483   5.4075   5.4091   5.4736   5.6599
     5.7807   5.9093   6.0676   6.2268   6.4626   6.6601   6.7439   6.8202
     6.8499   6.8645   7.3143   7.4721   7.4843   8.5297   8.7314   8.8004
     8.8151   8.9270   8.9607   9.0341   9.2133   9.3393   9.4999   9.5553
     9.6984   9.7536   9.7848

          k = 1.1345 0.6577-0.0900 ( 23448 PWs)   bands (ev):

   -73.9662 -69.3606 -42.7203 -42.7150 -42.7137 -38.2022 -38.1977 -38.1829
   -15.5712 -15.5711 -15.5698 -15.5697 -15.5656 -15.5656 -15.5628 -15.5627
   -15.5550 -15.5549 -15.5536 -15.5536 -15.5524 -15.5523 -15.5516 -15.5515
   -15.5485 -15.5485 -15.5466 -15.5464  -5.3269  -5.2991  -5.1379  -5.0959
    -3.6506  -3.4527  -3.2405  -2.9900  -1.6814  -1.4414  -1.1657  -0.9999
     3.5670   3.8835   4.0219   4.2112   4.2959   4.3497   4.6367   4.7585
     4.7928   5.0000   5.1711   5.2672   5.2920   5.3260   5.3926   5.5807
     5.7117   5.8453   5.9324   6.2056   6.4161   6.5995   6.6934   6.7115
     6.7880   6.8308   7.2268   7.4509   7.4794   8.5849   8.7283   8.8085
     8.8359   8.9459   8.9481   9.0748   9.3092   9.4158   9.5444   9.5534
     9.7171   9.8144   9.9995

          k = 1.2605 0.7308-0.1000 ( 23450 PWs)   bands (ev):

   -73.9662 -69.3606 -42.7203 -42.7150 -42.7137 -38.2022 -38.1977 -38.1829
   -15.5718 -15.5717 -15.5704 -15.5703 -15.5652 -15.5652 -15.5624 -15.5623
   -15.5549 -15.5548 -15.5534 -15.5534 -15.5521 -15.5519 -15.5512 -15.5512
   -15.5486 -15.5485 -15.5462 -15.5462  -5.2621  -5.2347  -5.0751  -5.0338
    -3.6078  -3.4141  -3.2107  -2.9673  -1.7127  -1.4934  -1.2318  -1.0849
     3.5108   3.7756   3.9366   4.1261   4.2380   4.3005   4.5495   4.6443
     4.7804   4.9173   5.0654   5.1730   5.2443   5.2673   5.3109   5.5040
     5.6396   5.7359   5.8528   6.1849   6.3161   6.4972   6.6066   6.6729
     6.7256   6.8347   7.1298   7.4016   7.4716   8.6141   8.7290   8.8062
     8.8500   8.9732   8.9892   9.1268   9.4111   9.4580   9.5301   9.5996
     9.6597   9.9191  10.2120

          k = 1.3866 0.8039-0.1100 ( 23455 PWs)   bands (ev):

   -73.9662 -69.3606 -42.7204 -42.7150 -42.7137 -38.2023 -38.1977 -38.1829
   -15.5725 -15.5724 -15.5711 -15.5710 -15.5649 -15.5648 -15.5620 -15.5619
   -15.5550 -15.5550 -15.5530 -15.5529 -15.5519 -15.5517 -15.5509 -15.5508
   -15.5485 -15.5485 -15.5458 -15.5457  -5.1912  -5.1643  -5.0064  -4.9659
    -3.5622  -3.3735  -3.1796  -2.9446  -1.7500  -1.5532  -1.3046  -1.1774
     3.4433   3.6540   3.8521   4.0609   4.1059   4.3038   4.4548   4.5561
     4.7681   4.7937   5.0183   5.0952   5.1656   5.2299   5.2486   5.4305
     5.5665   5.6151   5.8063   6.1647   6.1936   6.3279   6.5946   6.6207
     6.6722   6.8259   7.0362   7.3403   7.4612   8.6197   8.7307   8.7936
     8.8603   9.0017   9.0630   9.1813   9.4637   9.4871   9.5402   9.5917
     9.6658  10.0073  10.3159

          k = 1.5126 0.8770-0.1200 ( 23463 PWs)   bands (ev):

   -73.9662 -69.3606 -42.7204 -42.7150 -42.7137 -38.2023 -38.1977 -38.1829
   -15.5732 -15.5731 -15.5718 -15.5717 -15.5645 -15.5644 -15.5616 -15.5615
   -15.5553 -15.5552 -15.5525 -15.5524 -15.5518 -15.5517 -15.5504 -15.5503
   -15.5483 -15.5482 -15.5454 -15.5453  -5.1143  -5.0879  -4.9321  -4.8925
    -3.5145  -3.3316  -3.1478  -2.9226  -1.7935  -1.6212  -1.3832  -1.2765
     3.3668   3.5293   3.7809   3.9398   4.0168   4.3051   4.3330   4.5013
     4.6884   4.7562   4.9901   5.0311   5.0913   5.1510   5.2084   5.3606
     5.4943   5.5321   5.7572   6.0625   6.1451   6.1773   6.5547   6.5559
     6.6286   6.7931   6.9675   7.2834   7.4488   8.6111   8.7261   8.7931
     8.8688   9.0308   9.1209   9.2037   9.4455   9.4779   9.5990   9.6319
     9.7070  10.0740  10.2516

          k = 1.6387 0.9500-0.1300 ( 23479 PWs)   bands (ev):

   -73.9662 -69.3606 -42.7204 -42.7150 -42.7137 -38.2024 -38.1978 -38.1829
   -15.5740 -15.5739 -15.5726 -15.5725 -15.5642 -15.5640 -15.5613 -15.5612
   -15.5556 -15.5555 -15.5519 -15.5518 -15.5518 -15.5516 -15.5498 -15.5498
   -15.5480 -15.5479 -15.5449 -15.5448  -5.0317  -5.0059  -4.8527  -4.8141
    -3.4652  -3.2896  -3.1158  -2.9024  -1.8432  -1.6975  -1.4666  -1.3814
     3.2822   3.4159   3.7145   3.7853   3.9562   4.1939   4.3040   4.4574
     4.6305   4.7441   4.9449   4.9925   5.0229   5.0754   5.1371   5.2945
     5.4249   5.4987   5.6935   5.9243   6.0669   6.1260   6.4742   6.4876
     6.5877   6.7245   6.9401   7.2400   7.4352   8.5957   8.7183   8.8014
     8.8766   9.0583   9.1190   9.2067   9.4184   9.4573   9.6569   9.7305
     9.7570  10.1173  10.1565

          k = 1.7647 1.0231-0.1400 ( 23491 PWs)   bands (ev):

   -73.9662 -69.3606 -42.7205 -42.7150 -42.7137 -38.2025 -38.1978 -38.1829
   -15.5748 -15.5747 -15.5734 -15.5733 -15.5638 -15.5637 -15.5610 -15.5609
   -15.5559 -15.5558 -15.5519 -15.5518 -15.5513 -15.5512 -15.5493 -15.5492
   -15.5476 -15.5474 -15.5443 -15.5443  -4.9438  -4.9187  -4.7684  -4.7310
    -3.4152  -3.2488  -3.0841  -2.8854  -1.8984  -1.7818  -1.5535  -1.4907
     3.1893   3.3225   3.6226   3.6557   3.8956   4.0527   4.3003   4.4222
     4.6122   4.7308   4.8730   4.9625   4.9769   5.0040   5.0550   5.2326
     5.3593   5.4852   5.6128   5.7991   5.9962   6.1073   6.3622   6.4202
     6.5470   6.6348   6.9347   7.2110   7.4211   8.5775   8.7112   8.8065
     8.8840   9.0577   9.0828   9.2353   9.3832   9.4365   9.6909   9.8241
     9.8390  10.0555  10.1393

          k = 1.8908 1.0962-0.1500 ( 23495 PWs)   bands (ev):

   -73.9662 -69.3606 -42.7205 -42.7150 -42.7137 -38.2025 -38.1978 -38.1829
   -15.5755 -15.5755 -15.5741 -15.5740 -15.5636 -15.5635 -15.5607 -15.5606
   -15.5562 -15.5561 -15.5521 -15.5520 -15.5506 -15.5506 -15.5487 -15.5487
   -15.5470 -15.5470 -15.5438 -15.5438  -4.8509  -4.8266  -4.6798  -4.6438
    -3.3655  -3.2111  -3.0530  -2.8732  -1.9581  -1.8731  -1.6427  -1.6029
     3.0935   3.2441   3.4925   3.5681   3.8254   3.9340   4.2939   4.4024
     4.6141   4.7141   4.7889   4.9126   4.9377   4.9659   4.9811   5.1754
     5.2986   5.4386   5.5253   5.7253   5.9530   6.0886   6.2328   6.3558
     6.5065   6.5395   6.9307   7.1926   7.4070   8.5580   8.6968   8.8033
     8.8912   9.0091   9.1032   9.2543   9.3500   9.4174   9.6895   9.8395
     9.9109  10.0533  10.1449

          k = 2.0168 1.1693-0.1600 ( 23501 PWs)   bands (ev):

   -73.9662 -69.3606 -42.7205 -42.7150 -42.7137 -38.2026 -38.1978 -38.1829
   -15.5762 -15.5762 -15.5748 -15.5747 -15.5634 -15.5633 -15.5605 -15.5604
   -15.5564 -15.5564 -15.5523 -15.5522 -15.5501 -15.5500 -15.5481 -15.5481
   -15.5465 -15.5464 -15.5432 -15.5432  -4.7536  -4.7303  -4.5875  -4.5532
    -3.3171  -3.1785  -3.0232  -2.8676  -2.0209  -1.9695  -1.7335  -1.7155
     3.0025   3.1650   3.3869   3.4730   3.7240   3.8689   4.2851   4.3955
     4.6225   4.6916   4.7071   4.8744   4.8783   4.9120   4.9594   5.1236
     5.2435   5.3462   5.4312   5.7187   5.9263   6.0696   6.0971   6.2960
     6.4461   6.4665   6.9210   7.1798   7.3934   8.5378   8.6586   8.8039
     8.8982   8.9943   9.1189   9.2375   9.3448   9.4012   9.6586   9.7412
     9.9897  10.1390  10.1541

          k = 2.1429 1.2424-0.1700 ( 23487 PWs)   bands (ev):

   -73.9662 -69.3606 -42.7206 -42.7151 -42.7137 -38.2026 -38.1978 -38.1828
   -15.5769 -15.5768 -15.5754 -15.5754 -15.5632 -15.5631 -15.5603 -15.5602
   -15.5567 -15.5566 -15.5525 -15.5524 -15.5495 -15.5494 -15.5475 -15.5474
   -15.5460 -15.5459 -15.5426 -15.5425  -4.6527  -4.6305  -4.4925  -4.4602
    -3.2715  -3.1533  -2.9957  -2.8707  -2.0861  -2.0669  -1.8323  -1.8182
     2.9206   3.0729   3.3185   3.3717   3.6147   3.8383   4.2743   4.3884
     4.6090   4.6626   4.6694   4.8216   4.8446   4.8523   4.9514   5.0780
     5.1943   5.2441   5.3364   5.7371   5.9066   5.9682   6.0494   6.2427
     6.3609   6.4278   6.9046   7.1685   7.3807   8.5168   8.6015   8.8160
     8.9047   9.0026   9.1299   9.1894   9.3675   9.3885   9.5724   9.6795
    10.0578  10.1278  10.2420

          k = 2.2689 1.3155-0.1800 ( 23494 PWs)   bands (ev):

   -73.9662 -69.3606 -42.7206 -42.7151 -42.7137 -38.2027 -38.1978 -38.1828
   -15.5775 -15.5775 -15.5761 -15.5760 -15.5630 -15.5630 -15.5601 -15.5600
   -15.5570 -15.5568 -15.5527 -15.5526 -15.5490 -15.5489 -15.5469 -15.5468
   -15.5455 -15.5454 -15.5421 -15.5420  -4.5488  -4.5280  -4.3958  -4.3660
    -3.2304  -3.1375  -2.9727  -2.8841  -2.1690  -2.1442  -1.9383  -1.9068
     2.8490   2.9733   3.2651   3.2821   3.5222   3.8220   4.2622   4.3584
     4.5877   4.6298   4.6812   4.7730   4.7755   4.8379   4.9418   5.0397
     5.1483   5.1513   5.2553   5.7241   5.8563   5.9090   6.0272   6.1977
     6.2916   6.3910   6.8829   7.1561   7.3691   8.4938   8.5454   8.8300
     8.9104   9.0197   9.1320   9.1368   9.3798   9.3985   9.4759   9.6421
    10.0884  10.1409  10.2777

          k = 2.3950 1.3885-0.1900 ( 23497 PWs)   bands (ev):

   -73.9662 -69.3606 -42.7206 -42.7151 -42.7137 -38.2027 -38.1978 -38.1828
   -15.5781 -15.5781 -15.5766 -15.5766 -15.5630 -15.5629 -15.5600 -15.5599
[...]
     3.2008   3.2480   3.3189   3.4809   3.5837   3.8452   3.8791   4.1430
     4.2166   4.2376   4.4214   4.6530   4.6702   4.8908   4.9085   4.9549
     5.0497   5.3116   5.4965   5.6890   5.7177   5.7891   6.0963   6.2870
     6.5459   6.6025   6.8306   7.2111   7.4494   8.6422   8.8345   8.9118
     8.9550   9.0065   9.1587   9.2092   9.4660   9.8163   9.9333   9.9801
     9.9847  10.0743  10.4544

          k = 1.1899 2.0784-0.1900 ( 23498 PWs)   bands (ev):

   -73.9741 -69.3528 -42.7284 -42.7230 -42.7216 -38.1946 -38.1901 -38.1750
   -15.5791 -15.5791 -15.5690 -15.5689 -15.5689 -15.5688 -15.5586 -15.5586
   -15.5578 -15.5577 -15.5565 -15.5564 -15.5520 -15.5520 -15.5455 -15.5455
   -15.5449 -15.5448 -15.5385 -15.5384  -4.7034  -4.6800  -4.5364  -4.5022
    -3.2848  -3.1291  -3.0070  -2.8253  -2.0746  -1.9731  -1.8352  -1.7770
     3.2605   3.3037   3.3590   3.5584   3.6327   3.9093   3.9557   4.1670
     4.2511   4.3480   4.4846   4.6665   4.7147   4.9117   4.9781   5.0047
     5.0968   5.3860   5.5383   5.6956   5.7690   5.8401   6.1827   6.3518
     6.5853   6.6263   6.8790   7.2056   7.4516   8.6476   8.8350   8.9561
     8.9655   8.9914   9.1408   9.1856   9.4356   9.7394   9.9010   9.9164
    10.0215  10.1102  10.4063

          k = 1.1273 1.9690-0.1800 ( 23500 PWs)   bands (ev):

   -73.9741 -69.3528 -42.7283 -42.7230 -42.7216 -38.1946 -38.1900 -38.1750
   -15.5788 -15.5787 -15.5690 -15.5688 -15.5686 -15.5685 -15.5587 -15.5587
   -15.5578 -15.5576 -15.5567 -15.5567 -15.5525 -15.5524 -15.5456 -15.5456
   -15.5451 -15.5450 -15.5389 -15.5388  -4.7912  -4.7671  -4.6200  -4.5846
    -3.3297  -3.1667  -3.0319  -2.8400  -2.0097  -1.8947  -1.7410  -1.6740
     3.2960   3.3691   3.4280   3.6531   3.6880   3.9352   4.0701   4.1963
     4.2759   4.4612   4.5635   4.6832   4.7483   4.9340   5.0319   5.0512
     5.1774   5.4598   5.5528   5.7463   5.7753   5.9597   6.2604   6.4145
     6.6061   6.6480   6.9243   7.2083   7.4555   8.6487   8.8319   8.9502
     8.9832   9.0372   9.1236   9.1631   9.4019   9.6758   9.8078   9.8537
    10.1128  10.1371  10.3595

          k = 1.0647 1.8596-0.1700 ( 23468 PWs)   bands (ev):

   -73.9741 -69.3528 -42.7283 -42.7230 -42.7216 -38.1946 -38.1900 -38.1750
   -15.5783 -15.5783 -15.5689 -15.5689 -15.5681 -15.5681 -15.5587 -15.5586
   -15.5577 -15.5577 -15.5569 -15.5569 -15.5530 -15.5529 -15.5458 -15.5457
   -15.5452 -15.5452 -15.5393 -15.5392  -4.8755  -4.8507  -4.7006  -4.6640
    -3.3750  -3.2052  -3.0583  -2.8566  -1.9495  -1.8200  -1.6500  -1.5730
     3.3234   3.4437   3.5109   3.7483   3.7557   3.9713   4.1749   4.2463
     4.2925   4.5744   4.6311   4.7053   4.7904   4.9632   5.0774   5.0929
     5.2703   5.5300   5.5624   5.8029   5.8245   6.0842   6.3276   6.4743
     6.6082   6.6688   6.9655   7.2222   7.4616   8.6501   8.8280   8.9365
     8.9767   9.0935   9.1098   9.1635   9.3624   9.6396   9.7119   9.7922
    10.1446  10.1965  10.3159

          k = 1.0021 1.7503-0.1600 ( 23460 PWs)   bands (ev):

   -73.9741 -69.3528 -42.7283 -42.7229 -42.7216 -38.1945 -38.1900 -38.1750
   -15.5779 -15.5779 -15.5689 -15.5689 -15.5677 -15.5677 -15.5587 -15.5586
   -15.5578 -15.5577 -15.5572 -15.5571 -15.5535 -15.5535 -15.5461 -15.5460
   -15.5452 -15.5452 -15.5398 -15.5397  -4.9559  -4.9305  -4.7777  -4.7401
    -3.4202  -3.2441  -3.0859  -2.8748  -1.8944  -1.7493  -1.5627  -1.4747
     3.3541   3.5269   3.5905   3.8121   3.8607   4.0294   4.2401   4.3050
     4.3476   4.6619   4.6780   4.7421   4.8503   5.0139   5.1185   5.1289
     5.3586   5.5866   5.5953   5.8538   5.9159   6.2102   6.3830   6.5254
     6.5997   6.6909   7.0024   7.2465   7.4699   8.6533   8.8236   8.9193
     8.9651   9.0825   9.1005   9.2328   9.3146   9.6155   9.6329   9.7349
    10.1316  10.2564  10.2736

          k = 0.9394 1.6409-0.1500 ( 23446 PWs)   bands (ev):

   -73.9741 -69.3528 -42.7283 -42.7229 -42.7216 -38.1945 -38.1900 -38.1751
   -15.5774 -15.5774 -15.5690 -15.5690 -15.5673 -15.5672 -15.5586 -15.5586
   -15.5578 -15.5578 -15.5574 -15.5573 -15.5540 -15.5540 -15.5463 -15.5463
   -15.5451 -15.5451 -15.5402 -15.5401  -5.0323  -5.0063  -4.8512  -4.8126
    -3.4649  -3.2830  -3.1141  -2.8942  -1.8445  -1.6830  -1.4798  -1.3796
     3.3905   3.6177   3.6590   3.8774   3.9686   4.1090   4.2946   4.3200
     4.4698   4.6708   4.7403   4.8270   4.8955   5.1052   5.1541   5.1602
     5.4368   5.6307   5.6576   5.9245   6.0150   6.3347   6.4260   6.5343
     6.6203   6.7175   7.0353   7.2768   7.4793   8.6571   8.8193   8.8992
     8.9502   9.0493   9.1014   9.2602   9.3166   9.5208   9.6322   9.7011
    10.1029  10.2224  10.2254

          k = 0.8768 1.5315-0.1400 ( 23440 PWs)   bands (ev):

   -73.9741 -69.3528 -42.7282 -42.7229 -42.7216 -38.1944 -38.1899 -38.1751
   -15.5770 -15.5770 -15.5692 -15.5691 -15.5668 -15.5668 -15.5586 -15.5585
   -15.5580 -15.5580 -15.5576 -15.5575 -15.5546 -15.5545 -15.5467 -15.5466
   -15.5451 -15.5450 -15.5407 -15.5406  -5.1045  -5.0780  -4.9209  -4.8814
    -3.5087  -3.3215  -3.1426  -2.9144  -1.7999  -1.6214  -1.4017  -1.2884
     3.4315   3.7141   3.7176   3.9432   4.0815   4.1893   4.3500   4.3582
     4.5848   4.6793   4.7935   4.9211   4.9357   5.1755   5.1890   5.2341
     5.5083   5.6892   5.7199   6.0096   6.1167   6.4528   6.4580   6.5020
     6.6776   6.7520   7.0648   7.3076   7.4879   8.6591   8.8155   8.8766
     8.9375   9.0100   9.1125   9.2022   9.3920   9.4332   9.5920   9.7262
    10.0637  10.0911  10.1650

          k = 0.8142 1.4221-0.1300 ( 23432 PWs)   bands (ev):

   -73.9741 -69.3528 -42.7282 -42.7229 -42.7216 -38.1944 -38.1899 -38.1751
   -15.5765 -15.5765 -15.5693 -15.5693 -15.5663 -15.5663 -15.5586 -15.5586
   -15.5582 -15.5581 -15.5577 -15.5577 -15.5551 -15.5550 -15.5470 -15.5470
   -15.5449 -15.5449 -15.5411 -15.5410  -5.1723  -5.1453  -4.9864  -4.9462
    -3.5510  -3.3591  -3.1709  -2.9351  -1.7606  -1.5648  -1.3289  -1.2016
     3.4746   3.7732   3.8125   4.0108   4.1878   4.2494   4.4092   4.4347
     4.6697   4.7055   4.8781   4.9396   5.0444   5.2019   5.2183   5.3637
     5.5795   5.7538   5.7834   6.1045   6.2129   6.4605   6.4848   6.5564
     6.7501   6.7970   7.0920   7.3339   7.4937   8.6567   8.8134   8.8539
     8.9309   8.9665   9.1332   9.1416   9.3438   9.4645   9.5385   9.7734
     9.9404  10.0092  10.0979

          k = 0.7515 1.3127-0.1200 ( 23440 PWs)   bands (ev):

   -73.9741 -69.3528 -42.7282 -42.7229 -42.7216 -38.1944 -38.1899 -38.1751
   -15.5760 -15.5760 -15.5696 -15.5696 -15.5659 -15.5659 -15.5587 -15.5587
   -15.5584 -15.5584 -15.5578 -15.5577 -15.5555 -15.5555 -15.5474 -15.5473
   -15.5448 -15.5447 -15.5415 -15.5415  -5.2356  -5.2082  -5.0477  -5.0068
    -3.5917  -3.3954  -3.1986  -2.9558  -1.7264  -1.5131  -1.2617  -1.1197
     3.5169   3.8318   3.9051   4.0862   4.2360   4.3326   4.4818   4.5246
     4.7203   4.7673   4.9576   4.9977   5.1475   5.2316   5.2527   5.4876
     5.6545   5.8210   5.8471   6.2062   6.2908   6.4192   6.5182   6.6386
     6.8366   6.8530   7.1179   7.3530   7.4952   8.6486   8.8133   8.8342
     8.9201   8.9325   9.0779   9.1582   9.2739   9.4847   9.5127   9.7743
     9.8362   9.9230  10.0411

          k = 0.6889 1.2033-0.1100 ( 23450 PWs)   bands (ev):

   -73.9741 -69.3528 -42.7282 -42.7229 -42.7216 -38.1943 -38.1899 -38.1751
   -15.5755 -15.5755 -15.5699 -15.5698 -15.5654 -15.5654 -15.5590 -15.5589
   -15.5587 -15.5586 -15.5578 -15.5577 -15.5559 -15.5559 -15.5478 -15.5477
   -15.5447 -15.5446 -15.5418 -15.5418  -5.2943  -5.2665  -5.1046  -5.0630
    -3.6302  -3.4301  -3.2254  -2.9762  -1.6969  -1.4666  -1.2003  -1.0432
     3.5558   3.8951   3.9822   4.1785   4.2493   4.4134   4.5600   4.6255
     4.7549   4.8672   4.9785   5.1277   5.2419   5.2741   5.3014   5.5941
     5.7325   5.8931   5.9085   6.3103   6.3387   6.3863   6.5718   6.7015
     6.9172   6.9269   7.1444   7.3652   7.4922   8.6360   8.8134   8.8186
     8.8744   8.9434   9.0089   9.1611   9.2407   9.4328   9.5394   9.6347
     9.8074   9.8724   9.9898

          k = 0.6263 1.0939-0.1000 ( 23446 PWs)   bands (ev):

   -73.9741 -69.3528 -42.7281 -42.7229 -42.7216 -38.1943 -38.1899 -38.1751
   -15.5751 -15.5750 -15.5701 -15.5701 -15.5649 -15.5649 -15.5594 -15.5592
   -15.5589 -15.5589 -15.5577 -15.5576 -15.5562 -15.5562 -15.5482 -15.5481
   -15.5445 -15.5445 -15.5421 -15.5421  -5.3482  -5.3201  -5.1570  -5.1149
    -3.6663  -3.4628  -3.2510  -2.9960  -1.6719  -1.4250  -1.1449  -0.9724
     3.5900   3.9600   4.0405   4.2565   4.2897   4.4683   4.6458   4.7256
     4.7943   4.9887   5.0051   5.2311   5.3381   5.3436   5.3722   5.6825
     5.8050   5.9636   5.9716   6.3495   6.3623   6.4330   6.6464   6.7533
     6.9808   7.0002   7.1747   7.3769   7.4873   8.6220   8.8049   8.8064
     8.8412   8.9318   8.9637   9.1211   9.2582   9.3840   9.5064   9.5410
     9.6772   9.8998   9.9221

          k = 0.5637 0.9845-0.0900 ( 23450 PWs)   bands (ev):

   -73.9741 -69.3528 -42.7281 -42.7229 -42.7216 -38.1943 -38.1899 -38.1751
   -15.5747 -15.5746 -15.5705 -15.5705 -15.5645 -15.5645 -15.5597 -15.5596
   -15.5592 -15.5592 -15.5575 -15.5575 -15.5564 -15.5564 -15.5487 -15.5485
   -15.5444 -15.5444 -15.5424 -15.5423  -5.3972  -5.3688  -5.2047  -5.1621
    -3.6998  -3.4932  -3.2750  -3.0149  -1.6511  -1.3883  -1.0955  -0.9077
     3.6190   4.0204   4.0854   4.2620   4.4132   4.5216   4.7196   4.7777
     4.8880   5.0314   5.1263   5.2931   5.4269   5.4501   5.4754   5.7619
     5.8658   6.0069   6.0469   6.3461   6.3799   6.5412   6.7356   6.8008
     7.0274   7.0361   7.2079   7.4004   7.4879   8.6101   8.7782   8.7931
     8.8337   8.8494   8.9872   9.0759   9.2752   9.3408   9.4056   9.5033
     9.5600   9.8236   9.9057

          k = 0.5010 0.8751-0.0800 ( 23448 PWs)   bands (ev):

   -73.9741 -69.3528 -42.7281 -42.7229 -42.7216 -38.1942 -38.1898 -38.1751
   -15.5743 -15.5742 -15.5708 -15.5708 -15.5641 -15.5641 -15.5601 -15.5600
   -15.5595 -15.5595 -15.5574 -15.5574 -15.5566 -15.5565 -15.5490 -15.5489
   -15.5442 -15.5442 -15.5426 -15.5425  -5.4413  -5.4126  -5.2476  -5.2046
    -3.7303  -3.5212  -3.2972  -3.0326  -1.6338  -1.3562  -1.0521  -0.8494
     3.6425   4.0707   4.1217   4.2655   4.5409   4.5924   4.7717   4.8008
     5.0172   5.0608   5.2701   5.3439   5.5253   5.5305   5.6115   5.8427
     5.9196   6.0335   6.1012   6.3667   6.4072   6.6439   6.8372   6.8506
     7.0321   7.0386   7.2364   7.4400   7.5035   8.6021   8.7423   8.7564
     8.8023   8.8337   9.0035   9.0347   9.2470   9.3068   9.3412   9.4162
     9.4968   9.7000   9.8704

          k = 0.4384 0.7657-0.0700 ( 23440 PWs)   bands (ev):

   -73.9741 -69.3528 -42.7281 -42.7229 -42.7216 -38.1942 -38.1898 -38.1751
   -15.5739 -15.5738 -15.5711 -15.5711 -15.5637 -15.5637 -15.5604 -15.5603
   -15.5598 -15.5598 -15.5572 -15.5572 -15.5567 -15.5567 -15.5494 -15.5492
   -15.5441 -15.5440 -15.5427 -15.5427  -5.4804  -5.4515  -5.2857  -5.2423
    -3.7578  -3.5463  -3.3173  -3.0488  -1.6198  -1.3287  -1.0144  -0.7976
     3.6607   4.1097   4.1521   4.2663   4.6644   4.6852   4.8070   4.8195
     5.0896   5.1573   5.3990   5.4169   5.5936   5.6293   5.7367   5.9254
     5.9817   6.0450   6.1296   6.4146   6.4492   6.7269   6.9049   6.9445
     7.0039   7.0121   7.2609   7.4793   7.5348   8.5947   8.6642   8.7541
     8.7944   8.8331   8.9961   9.0021   9.1444   9.2675   9.3309   9.3418
     9.4490   9.5733   9.7283

          k = 0.3758 0.6563-0.0600 ( 23456 PWs)   bands (ev):

   -73.9741 -69.3528 -42.7280 -42.7228 -42.7216 -38.1942 -38.1898 -38.1751
   -15.5735 -15.5735 -15.5715 -15.5715 -15.5634 -15.5634 -15.5608 -15.5606
   -15.5601 -15.5601 -15.5571 -15.5571 -15.5568 -15.5568 -15.5497 -15.5495
   -15.5439 -15.5439 -15.5429 -15.5429  -5.5144  -5.4853  -5.3189  -5.2751
    -3.7819  -3.5685  -3.3352  -3.0632  -1.6086  -1.3055  -0.9825  -0.7525
     3.6738   4.1398   4.1780   4.2648   4.7691   4.7848   4.8431   4.8445
     5.1192   5.3020   5.4679   5.5554   5.6544   5.7107   5.8396   5.9895
     6.0504   6.0578   6.1640   6.4811   6.5012   6.7828   6.9119   6.9280
     7.0172   7.0814   7.2810   7.5042   7.5705   8.5815   8.6087   8.7712
     8.7928   8.8301   8.9481   8.9849   9.0369   9.2169   9.2259   9.3557
     9.4313   9.4599   9.5671

          k = 0.3131 0.5470-0.0500 ( 23452 PWs)   bands (ev):

   -73.9741 -69.3528 -42.7280 -42.7228 -42.7216 -38.1941 -38.1898 -38.1751
   -15.5733 -15.5732 -15.5718 -15.5718 -15.5632 -15.5631 -15.5610 -15.5608
   -15.5604 -15.5604 -15.5571 -15.5570 -15.5568 -15.5568 -15.5500 -15.5498
   -15.5438 -15.5438 -15.5430 -15.5430  -5.5432  -5.5140  -5.3470  -5.3031
    -3.8026  -3.5876  -3.3506  -3.0758  -1.5999  -1.2863  -0.9559  -0.7143
     3.6827   4.1638   4.1999   4.2619   4.8192   4.8268   4.9037   4.9400
     5.1533   5.4428   5.5630   5.6677   5.7084   5.7799   5.9098   6.0470
     6.0616   6.0752   6.2683   6.5437   6.5601   6.8132   6.8434   6.8736
     7.0793   7.2006   7.2770   7.5311   7.5982   8.5594   8.5850   8.7521
     8.7962   8.8408   8.8942   8.9612   8.9897   9.0604   9.1858   9.3519
     9.3779   9.4240   9.4253

          k = 0.2505 0.4376-0.0400 ( 23437 PWs)   bands (ev):

   -73.9741 -69.3528 -42.7280 -42.7228 -42.7216 -38.1941 -38.1898 -38.1751
   -15.5730 -15.5729 -15.5720 -15.5720 -15.5629 -15.5628 -15.5613 -15.5611
   -15.5606 -15.5606 -15.5571 -15.5570 -15.5568 -15.5567 -15.5502 -15.5500
   -15.5437 -15.5437 -15.5430 -15.5430  -5.5669  -5.5375  -5.3702  -5.3260
    -3.8196  -3.6034  -3.3635  -3.0863  -1.5932  -1.2709  -0.9345  -0.6830
     3.6882   4.1833   4.2180   4.2586   4.8350   4.8399   4.9728   5.0509
     5.2053   5.5706   5.6918   5.7399   5.7591   5.8440   5.9432   6.0554
     6.0863   6.1172   6.3762   6.5566   6.6284   6.7745   6.8116   6.8863
     7.1136   7.2469   7.3096   7.5884   7.6087   8.5245   8.5822   8.6796
     8.8056   8.8147   8.8805   8.9334   8.9376   9.0080   9.1450   9.2409
     9.2921   9.3957   9.4139

          k = 0.1879 0.3282-0.0300 ( 23457 PWs)   bands (ev):

   -73.9741 -69.3528 -42.7280 -42.7228 -42.7216 -38.1941 -38.1898 -38.1751
   -15.5729 -15.5728 -15.5723 -15.5722 -15.5627 -15.5627 -15.5615 -15.5612
   -15.5608 -15.5608 -15.5571 -15.5571 -15.5567 -15.5567 -15.5504 -15.5502
   -15.5437 -15.5436 -15.5431 -15.5430  -5.5853  -5.5559  -5.3882  -5.3438
    -3.8330  -3.6158  -3.3736  -3.0947  -1.5884  -1.2592  -0.9182  -0.6586
     3.6911   4.1987   4.2322   4.2556   4.8436   4.8472   5.0238   5.1210
     5.3001   5.6909   5.7830   5.7857   5.8648   5.8944   5.9528   6.0329
     6.1166   6.1837   6.3961   6.4972   6.7049   6.7947   6.8059   6.9309
     7.0550   7.2783   7.3954   7.5947   7.6629   8.4747   8.5795   8.6260
     8.6947   8.8180   8.8567   8.9184   8.9218   9.0690   9.1108   9.1278
     9.2083   9.3338   9.3983

          k = 0.1253 0.2188-0.0200 ( 23473 PWs)   bands (ev):

   -73.9741 -69.3528 -42.7280 -42.7228 -42.7216 -38.1941 -38.1898 -38.1751
   -15.5728 -15.5727 -15.5724 -15.5724 -15.5626 -15.5625 -15.5616 -15.5614
   -15.5610 -15.5609 -15.5572 -15.5571 -15.5567 -15.5566 -15.5506 -15.5503
   -15.5437 -15.5436 -15.5432 -15.5431  -5.5985  -5.5690  -5.4011  -5.3566
    -3.8427  -3.6248  -3.3809  -3.1007  -1.5851  -1.2509  -0.9067  -0.6412
     3.6926   4.2099   4.2425   4.2532   4.8490   4.8517   5.0563   5.1539
     5.4203   5.7920   5.8113   5.8413   5.9260   5.9486   6.0132   6.0321
     6.1424   6.2250   6.3339   6.4008   6.7621   6.7918   6.8960   6.9400
     7.0064   7.3578   7.4500   7.5535   7.7218   8.4136   8.5717   8.5968
     8.6027   8.8262   8.8485   8.9048   8.9172   9.0125   9.0935   9.1371
     9.1521   9.2625   9.3752

          k = 0.0626 0.1094-0.0100 ( 23483 PWs)   bands (ev):

   -73.9741 -69.3528 -42.7280 -42.7228 -42.7216 -38.1941 -38.1898 -38.1751
   -15.5728 -15.5727 -15.5725 -15.5724 -15.5626 -15.5625 -15.5617 -15.5614
   -15.5611 -15.5610 -15.5572 -15.5571 -15.5566 -15.5566 -15.5507 -15.5504
   -15.5437 -15.5436 -15.5432 -15.5431  -5.6065  -5.5769  -5.4088  -5.3643
    -3.8485  -3.6301  -3.3853  -3.1043  -1.5831  -1.2460  -0.8998  -0.6308
     3.6931   4.2167   4.2487   4.2518   4.8521   4.8543   5.0738   5.1699
     5.5239   5.8270   5.8298   5.9251   5.9363   5.9650   6.0100   6.1442
     6.1896   6.1958   6.3056   6.3090   6.6532   6.8738   6.9150   6.9924
     7.0243   7.4413   7.4741   7.5006   7.7430   8.3467   8.5721   8.5772
     8.5909   8.8342   8.8462   8.8897   8.9137   8.9190   9.0222   9.1377
     9.2255   9.2491   9.3427

          k = 0.0000 0.0000 0.0000 ( 23485 PWs)   bands (ev):

   -73.9741 -69.3528 -42.7280 -42.7228 -42.7216 -38.1941 -38.1898 -38.1751
   -15.5728 -15.5727 -15.5726 -15.5724 -15.5626 -15.5624 -15.5618 -15.5615
   -15.5611 -15.5610 -15.5572 -15.5571 -15.5567 -15.5565 -15.5507 -15.5504
   -15.5437 -15.5436 -15.5432 -15.5430  -5.6091  -5.5795  -5.4114  -5.3668
    -3.8504  -3.6319  -3.3867  -3.1055  -1.5825  -1.2444  -0.8975  -0.6273
     3.6933   4.2189   4.2508   4.2513   4.8531   4.8551   5.0793   5.1750
     5.5675   5.8356   5.8370   5.9341   5.9345   6.0178   6.0191   6.1494
     6.1497   6.2181   6.3120   6.3129   6.5734   6.9093   6.9100   7.0318
     7.0325   7.4721   7.4809   7.4811   7.7412   8.3168   8.5770   8.5782
     8.5940   8.8467   8.8508   8.8720   8.8724   8.9135   8.9843   9.1462
     9.2715   9.2721   9.3115

     Writing all to output data dir ./tmp/MnBi2Te4.save/
 
     init_run     :      0.88s CPU      1.12s WALL (       1 calls)
     electrons    :  15098.77s CPU  16028.94s WALL (       1 calls)

     Called by init_run:
     wfcinit      :      0.00s CPU      0.00s WALL (       1 calls)
     wfcinit:atom :      0.06s CPU      0.07s WALL (     302 calls)
     wfcinit:wfcr :    389.59s CPU    412.12s WALL (     302 calls)
     potinit      :      0.37s CPU      0.48s WALL (       1 calls)
     hinit0       :      0.38s CPU      0.42s WALL (       1 calls)

     Called by electrons:
     c_bands      :  15098.77s CPU  16028.89s WALL (       1 calls)
     v_of_rho     :      0.22s CPU      0.28s WALL (       1 calls)
     v_h          :      0.01s CPU      0.01s WALL (       1 calls)
     v_xc         :      0.22s CPU      0.28s WALL (       1 calls)
     newd         :      0.05s CPU      0.07s WALL (       1 calls)
     PAW_pot      :      0.13s CPU      0.16s WALL (       1 calls)

     Called by c_bands:
     init_us_2    :      0.10s CPU      0.11s WALL (     302 calls)
     init_us_2:cp :      0.10s CPU      0.11s WALL (     302 calls)
     cegterg      :  14704.97s CPU  15612.07s WALL (    1258 calls)

     Called by sum_band:

     Called by *egterg:
     cdiaghg      :    220.97s CPU    230.51s WALL (   23218 calls)
     cegterg:over :    395.25s CPU    451.02s WALL (   22916 calls)
     cegterg:upda :     14.68s CPU     14.88s WALL (   22916 calls)
     cegterg:last :     39.85s CPU     40.43s WALL (   11812 calls)
     h_psi        :  14217.94s CPU  15066.95s WALL (   24476 calls)
     s_psi        :     25.07s CPU     25.43s WALL (   24476 calls)
     g_psi        :      0.90s CPU      0.92s WALL (   22916 calls)

     Called by h_psi:
     h_psi:calbec :    275.13s CPU    319.46s WALL (   24476 calls)
     vloc_psi     :  13910.52s CPU  14714.46s WALL (   24476 calls)
     add_vuspsi   :     31.40s CPU     32.15s WALL (   24476 calls)

     General routines
     calbec       :    274.99s CPU    319.39s WALL (   24476 calls)
     fft          :      0.09s CPU      0.12s WALL (      21 calls)
     fftw         :  13521.10s CPU  14320.57s WALL ( 1973166 calls)
     davcio       :      0.10s CPU      0.33s WALL (     604 calls)
 
     Parallel routines

     PAW routines
     PAW_pot      :      0.13s CPU      0.16s WALL (       1 calls)
 
     PWSCF        :      4h11m CPU      4h27m WALL

 
   This run was terminated on:   3: 9:20  14Jun2025            

=------------------------------------------------------------------------------=
   JOB DONE.
=------------------------------------------------------------------------------=
