
     Program PWSCF v.7.2 starts on 13Jun2025 at 14:21:18 

     This program is part of the open-source Quantum ESPRESSO suite
     for quantum simulation of materials; please cite
         "P. Giannozzi et al., J. Phys.:Condens. Matter 21 395502 (2009);
         "P. Giannozzi et al., J. Phys.:Condens. Matter 29 465901 (2017);
         "P. Giannozzi et al., J. Chem. Phys. 152 154105 (2020);
          URL http://www.quantum-espresso.org", 
     in publications or presentations arising from this work. More details at
     http://www.quantum-espresso.org/quote

     Parallel version (MPI), running on    64 processors

     MPI processes distributed on     1 nodes
     228419 MiB available memory on the printing compute node when the environment starts
 
     Reading input from MnBi2Te4.nscf.in

     Current dimensions of program PWSCF are:
     Max number of different atomic species (ntypx) = 10
     Max number of k-points (npk) =  40000
     Max angular momentum in pseudopotentials (lmaxx) =  4

     Atomic positions and unit cell read from directory:
     ./tmp/MnBi2Te4.save/
     Atomic positions from file used, from input discarded
 
     file Mn.pbe-spn-kjpaw_psl.0.3.1.UPF: wavefunction(s)  3P 3D renormalized
     file Mn.pbe-spn-kjpaw_psl.0.3.1.UPF: wavefunction(s)  3P 3D renormalized
     file Bi.pbe-dn-kjpaw_psl.1.0.0.UPF: wavefunction(s)  6P 5D renormalized
     file Te.pbe-n-kjpaw_psl.1.0.0.UPF: wavefunction(s)  5S 5P renormalized
     Message from routine setup:
     using ibrav=0 with symmetry is DISCOURAGED, use correct ibrav instead
 
     R & G space division:  proc/nbgrp/npool/nimage =      64
     Subspace diagonalization in iterative solution of the eigenvalue problem:
     a serial algorithm will be used

 
     Parallelization info
     --------------------
     sticks:   dense  smooth     PW     G-vecs:    dense   smooth      PW
     Min         126     126     38                 2936     2936     488
     Max         127     127     39                 2938     2938     489
     Sum        8079    8079   2441               187971   187971   31237
 
     Using Slab Decomposition
 


     bravais-lattice index     =            0
     lattice parameter (alat)  =      51.7756  a.u.
     unit-cell volume          =    2994.5593 (a.u.)^3
     number of atoms/cell      =           14
     number of atomic types    =            4
     number of electrons       =       138.00
     number of Kohn-Sham states=           83
     kinetic-energy cutoff     =      60.0000  Ry
     charge density cutoff     =     240.0000  Ry
     Exchange-correlation= SLA  PW   PBX  PBC
                           (   1   4   3   4   0   0   0)

     celldm(1)=  51.775623  celldm(2)=   0.000000  celldm(3)=   0.000000
     celldm(4)=   0.000000  celldm(5)=   0.000000  celldm(6)=   0.000000

     crystal axes: (cart. coord. in units of alat)
               a(1) = (   0.157674   0.000000   0.987491 )  
               a(2) = (   0.078341   0.136835   0.987491 )  
               a(3) = (   0.000000   0.000000   1.000000 )  

     reciprocal axes: (cart. coord. in units 2 pi/alat)
               b(1) = (  6.342202 -3.631040  0.000000 )  
               b(2) = (  0.000000  7.308076  0.000000 )  
               b(3) = ( -6.262868 -3.631040  1.000000 )  


     PseudoPot. # 1 for Mn read from file:
     ./Mn.pbe-spn-kjpaw_psl.0.3.1.UPF
     MD5 check sum: 872d0d815bb0ce6e24cff79ea4d0ae31
     Pseudo is Projector augmented-wave + core cor, Zval = 15.0
     Generated using &quot;atomic&quot; code by A. Dal Corso  v.6.2.2
     Shape of augmentation charge: PSQ
     Using radial grid of 1187 points,  6 beta functions with: 
                l(1) =   0
                l(2) =   0
                l(3) =   1
                l(4) =   1
                l(5) =   2
                l(6) =   2
     Q(r) pseudized with 0 coefficients 


     PseudoPot. # 2 for Mn read from file:
     ./Mn.pbe-spn-kjpaw_psl.0.3.1.UPF
     MD5 check sum: 872d0d815bb0ce6e24cff79ea4d0ae31
     Pseudo is Projector augmented-wave + core cor, Zval = 15.0
     Generated using &quot;atomic&quot; code by A. Dal Corso  v.6.2.2
     Shape of augmentation charge: PSQ
     Using radial grid of 1187 points,  6 beta functions with: 
                l(1) =   0
                l(2) =   0
                l(3) =   1
                l(4) =   1
                l(5) =   2
                l(6) =   2
     Q(r) pseudized with 0 coefficients 


     PseudoPot. # 3 for Bi read from file:
     ./Bi.pbe-dn-kjpaw_psl.1.0.0.UPF
     MD5 check sum: 29baffecec4108f41a587bcf9a453472
     Pseudo is Projector augmented-wave + core cor, Zval = 15.0
     Generated using &quot;atomic&quot; code by A. Dal Corso  v.6.2.2
     Shape of augmentation charge: PSQ
     Using radial grid of 1283 points,  6 beta functions with: 
                l(1) =   0
                l(2) =   0
                l(3) =   1
                l(4) =   1
                l(5) =   2
                l(6) =   2
     Q(r) pseudized with 0 coefficients 


     PseudoPot. # 4 for Te read from file:
     ./Te.pbe-n-kjpaw_psl.1.0.0.UPF
     MD5 check sum: 960f80ef2db6fd2ef753b89a550c1479
     Pseudo is Projector augmented-wave + core cor, Zval =  6.0
     Generated using &quot;atomic&quot; code by A. Dal Corso  v.6.3
     Shape of augmentation charge: PSQ
     Using radial grid of 1245 points,  6 beta functions with: 
                l(1) =   0
                l(2) =   0
                l(3) =   1
                l(4) =   1
                l(5) =   2
                l(6) =   2
     Q(r) pseudized with 0 coefficients 


     atomic species   valence    mass     pseudopotential
        Mn1           15.00    54.93800     Mn( 1.00)
        Mn2           15.00    54.93800     Mn( 1.00)
        Bi            15.00   208.98000     Bi( 1.00)
        Te             6.00   127.60300     Te( 1.00)

     Starting magnetic structure 
     atomic species   magnetization
        Mn1          0.333
        Mn2         -0.333
        Bi           0.000
        Te           0.000

      2 Sym. Ops., with inversion, found


                                    s                        frac. trans.

      isym =  1     identity                                     

 cryst.   s( 1) = (     1          0          0      )
                  (     0          1          0      )
                  (     0          0          1      )

 cart.    s( 1) = (  1.0000000  0.0000000  0.0000000 )
                  (  0.0000000  1.0000000  0.0000000 )
                  (  0.0000000  0.0000000  1.0000000 )


      isym =  2     inversion                                    

 cryst.   s( 2) = (    -1          0          0      )
                  (     0         -1          0      )
                  (     0          0         -1      )

 cart.    s( 2) = ( -1.0000000  0.0000000  0.0000000 )
                  (  0.0000000 -1.0000000  0.0000000 )
                  (  0.0000000  0.0000000 -1.0000000 )


   Cartesian axes

     site n.     atom                  positions (alat units)
         1           Mn1 tau(   1) = (   0.0000000   0.0000000   0.0000000  )
         2           Mn2 tau(   2) = (   0.1180074   0.0684175   1.4874912  )
         3           Bi  tau(   3) = (   0.0501413   0.0290706   0.6320350  )
         4           Bi  tau(   4) = (   0.1681487   0.0974880   2.1195262  )
         5           Bi  tau(   5) = (   0.0678660   0.0393469   0.8554562  )
         6           Bi  tau(   6) = (   0.1858734   0.1077643   2.3429474  )
         7           Te  tau(   7) = (   0.0157375   0.0091242   0.1983718  )
         8           Te  tau(   8) = (   0.1337448   0.0775416   1.6858631  )
         9           Te  tau(   9) = (   0.1022699   0.0592933   1.2891194  )
        10           Te  tau(  10) = (   0.2202773   0.1277108   2.7766106  )
        11           Te  tau(  11) = (   0.0347012   0.0201188   0.4374117  )
        12           Te  tau(  12) = (   0.1527086   0.0885363   1.9249029  )
        13           Te  tau(  13) = (   0.0833061   0.0482986   1.0500796  )
        14           Te  tau(  14) = (   0.2013135   0.1167161   2.5375708  )

   Crystallographic axes

     site n.     atom                  positions (cryst. coord.)
         1           Mn1 tau(   1) = (  0.0000000  0.0000000  0.0000000  )
         2           Mn2 tau(   2) = (  0.5000000  0.5000000  0.5000000  )
         3           Bi  tau(   3) = (  0.2124500  0.2124500  0.2124500  )
         4           Bi  tau(   4) = (  0.7124500  0.7124500  0.7124500  )
         5           Bi  tau(   5) = (  0.2875500  0.2875500  0.2875500  )
         6           Bi  tau(   6) = (  0.7875500  0.7875500  0.7875500  )
         7           Te  tau(   7) = (  0.0666800  0.0666800  0.0666800  )
         8           Te  tau(   8) = (  0.5666800  0.5666800  0.5666800  )
         9           Te  tau(   9) = (  0.4333200  0.4333200  0.4333200  )
        10           Te  tau(  10) = (  0.9333200  0.9333200  0.9333200  )
        11           Te  tau(  11) = (  0.1470300  0.1470300  0.1470300  )
        12           Te  tau(  12) = (  0.6470300  0.6470300  0.6470300  )
        13           Te  tau(  13) = (  0.3529700  0.3529700  0.3529700  )
        14           Te  tau(  14) = (  0.8529700  0.8529700  0.8529700  )

     number of k points=   260  Marzari-Vanderbilt smearing, width (Ry)=  0.0200
                       cart. coord. in units 2pi/alat
        k(    1) = (   0.0000000   0.0000000   0.0000000), wk =   0.0019531
        k(    2) = (  -0.7828585  -0.4538800   0.1250000), wk =   0.0039062
        k(    3) = (  -1.5657171  -0.9077601   0.2500000), wk =   0.0039062
        k(    4) = (  -2.3485756  -1.3616401   0.3750000), wk =   0.0039062
        k(    5) = (   3.1314342   1.8155202  -0.5000000), wk =   0.0019531
        k(    6) = (   0.0000000   0.9135095   0.0000000), wk =   0.0039062
        k(    7) = (  -0.7828585   0.4596294   0.1250000), wk =   0.0039062
        k(    8) = (  -1.5657171   0.0057494   0.2500000), wk =   0.0039062
        k(    9) = (  -2.3485756  -0.4481306   0.3750000), wk =   0.0039062
        k(   10) = (   3.1314342   2.7290297  -0.5000000), wk =   0.0039062
        k(   11) = (   2.3485756   2.2751496  -0.3750000), wk =   0.0039062
        k(   12) = (   1.5657171   1.8212696  -0.2500000), wk =   0.0039062
        k(   13) = (   0.7828585   1.3673895  -0.1250000), wk =   0.0039062
        k(   14) = (   0.0000000   1.8270190   0.0000000), wk =   0.0039062
        k(   15) = (  -0.7828585   1.3731389   0.1250000), wk =   0.0039062
        k(   16) = (  -1.5657171   0.9192589   0.2500000), wk =   0.0039062
        k(   17) = (  -2.3485756   0.4653788   0.3750000), wk =   0.0039062
        k(   18) = (   3.1314342   3.6425392  -0.5000000), wk =   0.0039062
        k(   19) = (   2.3485756   3.1886591  -0.3750000), wk =   0.0039062
        k(   20) = (   1.5657171   2.7347791  -0.2500000), wk =   0.0039062
        k(   21) = (   0.7828585   2.2808990  -0.1250000), wk =   0.0039062
        k(   22) = (   0.0000000   2.7405285   0.0000000), wk =   0.0039062
        k(   23) = (  -0.7828585   2.2866484   0.1250000), wk =   0.0039062
        k(   24) = (  -1.5657171   1.8327684   0.2500000), wk =   0.0039062
        k(   25) = (  -2.3485756   1.3788883   0.3750000), wk =   0.0039062
        k(   26) = (   3.1314342   4.5560487  -0.5000000), wk =   0.0039062
        k(   27) = (   2.3485756   4.1021686  -0.3750000), wk =   0.0039062
        k(   28) = (   1.5657171   3.6482886  -0.2500000), wk =   0.0039062
        k(   29) = (   0.7828585   3.1944085  -0.1250000), wk =   0.0039062
        k(   30) = (   0.0000000  -3.6540380   0.0000000), wk =   0.0019531
        k(   31) = (  -0.7828585  -4.1079180   0.1250000), wk =   0.0039062
        k(   32) = (  -1.5657171  -4.5617981   0.2500000), wk =   0.0039062
        k(   33) = (  -2.3485756  -5.0156781   0.3750000), wk =   0.0039062
        k(   34) = (   3.1314342  -1.8385178  -0.5000000), wk =   0.0019531
        k(   35) = (   0.7927752  -0.4538800   0.0000000), wk =   0.0039062
        k(   36) = (   0.0099166  -0.9077601   0.1250000), wk =   0.0039062
        k(   37) = (  -0.7729419  -1.3616401   0.2500000), wk =   0.0039062
        k(   38) = (  -1.5558004  -1.8155202   0.3750000), wk =   0.0039062
        k(   39) = (   3.9242094   1.3616401  -0.5000000), wk =   0.0039062
        k(   40) = (   3.1413508   0.9077601  -0.3750000), wk =   0.0039062
        k(   41) = (   2.3584923   0.4538800  -0.2500000), wk =   0.0039062
        k(   42) = (   1.5756337   0.0000000  -0.1250000), wk =   0.0039062
        k(   43) = (   0.7927752   0.4596294   0.0000000), wk =   0.0039062
        k(   44) = (   0.0099166   0.0057494   0.1250000), wk =   0.0039062
        k(   45) = (  -0.7729419  -0.4481306   0.2500000), wk =   0.0039062
        k(   46) = (  -1.5558004  -0.9020107   0.3750000), wk =   0.0039062
        k(   47) = (   3.9242094   2.2751496  -0.5000000), wk =   0.0039062
        k(   48) = (   3.1413508   1.8212696  -0.3750000), wk =   0.0039062
        k(   49) = (   2.3584923   1.3673895  -0.2500000), wk =   0.0039062
        k(   50) = (   1.5756337   0.9135095  -0.1250000), wk =   0.0039062
        k(   51) = (   0.7927752   1.3731389   0.0000000), wk =   0.0039062
        k(   52) = (   0.0099166   0.9192589   0.1250000), wk =   0.0039062
        k(   53) = (  -0.7729419   0.4653788   0.2500000), wk =   0.0039062
        k(   54) = (  -1.5558004   0.0114988   0.3750000), wk =   0.0039062
        k(   55) = (   3.9242094   3.1886591  -0.5000000), wk =   0.0039062
        k(   56) = (   3.1413508   2.7347791  -0.3750000), wk =   0.0039062
        k(   57) = (   2.3584923   2.2808990  -0.2500000), wk =   0.0039062
        k(   58) = (   1.5756337   1.8270190  -0.1250000), wk =   0.0039062
        k(   59) = (   0.7927752   2.2866484   0.0000000), wk =   0.0039062
        k(   60) = (   0.0099166   1.8327684   0.1250000), wk =   0.0039062
        k(   61) = (  -0.7729419   1.3788883   0.2500000), wk =   0.0039062
        k(   62) = (  -1.5558004   0.9250083   0.3750000), wk =   0.0039062
        k(   63) = (   3.9242094   4.1021686  -0.5000000), wk =   0.0039062
        k(   64) = (   3.1413508   3.6482886  -0.3750000), wk =   0.0039062
        k(   65) = (   2.3584923   3.1944085  -0.2500000), wk =   0.0039062
        k(   66) = (   1.5756337   2.7405285  -0.1250000), wk =   0.0039062
        k(   67) = (   0.7927752  -4.1079180   0.0000000), wk =   0.0039062
        k(   68) = (   0.0099166  -4.5617981   0.1250000), wk =   0.0039062
        k(   69) = (  -0.7729419  -5.0156781   0.2500000), wk =   0.0039062
        k(   70) = (  -1.5558004  -5.4695582   0.3750000), wk =   0.0039062
        k(   71) = (   3.9242094  -2.2923978  -0.5000000), wk =   0.0039062
        k(   72) = (   3.1413508  -2.7462779  -0.3750000), wk =   0.0039062
        k(   73) = (   2.3584923  -3.2001579  -0.2500000), wk =   0.0039062
        k(   74) = (   1.5756337  -3.6540380  -0.1250000), wk =   0.0039062
        k(   75) = (   0.7927752  -3.1944085   0.0000000), wk =   0.0039062
        k(   76) = (   0.0099166  -3.6482886   0.1250000), wk =   0.0039062
        k(   77) = (  -0.7729419  -4.1021686   0.2500000), wk =   0.0039062
        k(   78) = (  -1.5558004  -4.5560487   0.3750000), wk =   0.0039062
        k(   79) = (   3.9242094  -1.3788883  -0.5000000), wk =   0.0039062
        k(   80) = (   3.1413508  -1.8327684  -0.3750000), wk =   0.0039062
        k(   81) = (   2.3584923  -2.2866484  -0.2500000), wk =   0.0039062
        k(   82) = (   1.5756337  -2.7405285  -0.1250000), wk =   0.0039062
        k(   83) = (   0.7927752  -2.2808990   0.0000000), wk =   0.0039062
        k(   84) = (   0.0099166  -2.7347791   0.1250000), wk =   0.0039062
        k(   85) = (  -0.7729419  -3.1886591   0.2500000), wk =   0.0039062
        k(   86) = (  -1.5558004  -3.6425392   0.3750000), wk =   0.0039062
        k(   87) = (   3.9242094  -0.4653788  -0.5000000), wk =   0.0039062
        k(   88) = (   3.1413508  -0.9192589  -0.3750000), wk =   0.0039062
        k(   89) = (   2.3584923  -1.3731389  -0.2500000), wk =   0.0039062
        k(   90) = (   1.5756337  -1.8270190  -0.1250000), wk =   0.0039062
        k(   91) = (   0.7927752  -1.3673895   0.0000000), wk =   0.0039062
        k(   92) = (   0.0099166  -1.8212696   0.1250000), wk =   0.0039062
        k(   93) = (  -0.7729419  -2.2751496   0.2500000), wk =   0.0039062
        k(   94) = (  -1.5558004  -2.7290297   0.3750000), wk =   0.0039062
        k(   95) = (   3.9242094   0.4481306  -0.5000000), wk =   0.0039062
        k(   96) = (   3.1413508  -0.0057494  -0.3750000), wk =   0.0039062
        k(   97) = (   2.3584923  -0.4596294  -0.2500000), wk =   0.0039062
        k(   98) = (   1.5756337  -0.9135095  -0.1250000), wk =   0.0039062
        k(   99) = (   1.5855504  -0.9077601   0.0000000), wk =   0.0039062
        k(  100) = (   0.8026918  -1.3616401   0.1250000), wk =   0.0039062
        k(  101) = (   0.0198333  -1.8155202   0.2500000), wk =   0.0039062
        k(  102) = (  -0.7630253  -2.2694002   0.3750000), wk =   0.0039062
        k(  103) = (   4.7169845   0.9077601  -0.5000000), wk =   0.0039062
        k(  104) = (   3.9341260   0.4538800  -0.3750000), wk =   0.0039062
        k(  105) = (   3.1512675   0.0000000  -0.2500000), wk =   0.0039062
        k(  106) = (   2.3684089  -0.4538800  -0.1250000), wk =   0.0039062
        k(  107) = (   1.5855504   0.0057494   0.0000000), wk =   0.0039062
        k(  108) = (   0.8026918  -0.4481306   0.1250000), wk =   0.0039062
        k(  109) = (   0.0198333  -0.9020107   0.2500000), wk =   0.0039062
        k(  110) = (  -0.7630253  -1.3558907   0.3750000), wk =   0.0039062
        k(  111) = (   4.7169845   1.8212696  -0.5000000), wk =   0.0039062
        k(  112) = (   3.9341260   1.3673895  -0.3750000), wk =   0.0039062
        k(  113) = (   3.1512675   0.9135095  -0.2500000), wk =   0.0039062
        k(  114) = (   2.3684089   0.4596294  -0.1250000), wk =   0.0039062
        k(  115) = (   1.5855504   0.9192589   0.0000000), wk =   0.0039062
        k(  116) = (   0.8026918   0.4653788   0.1250000), wk =   0.0039062
        k(  117) = (   0.0198333   0.0114988   0.2500000), wk =   0.0039062
        k(  118) = (  -0.7630253  -0.4423812   0.3750000), wk =   0.0039062
        k(  119) = (   4.7169845   2.7347791  -0.5000000), wk =   0.0039062
        k(  120) = (   3.9341260   2.2808990  -0.3750000), wk =   0.0039062
        k(  121) = (   3.1512675   1.8270190  -0.2500000), wk =   0.0039062
        k(  122) = (   2.3684089   1.3731389  -0.1250000), wk =   0.0039062
        k(  123) = (   1.5855504   1.8327684   0.0000000), wk =   0.0039062
        k(  124) = (   0.8026918   1.3788883   0.1250000), wk =   0.0039062
        k(  125) = (   0.0198333   0.9250083   0.2500000), wk =   0.0039062
        k(  126) = (  -0.7630253   0.4711282   0.3750000), wk =   0.0039062
        k(  127) = (   4.7169845   3.6482886  -0.5000000), wk =   0.0039062
        k(  128) = (   3.9341260   3.1944085  -0.3750000), wk =   0.0039062
        k(  129) = (   3.1512675   2.7405285  -0.2500000), wk =   0.0039062
        k(  130) = (   2.3684089   2.2866484  -0.1250000), wk =   0.0039062
        k(  131) = (   1.5855504  -4.5617981   0.0000000), wk =   0.0039062
        k(  132) = (   0.8026918  -5.0156781   0.1250000), wk =   0.0039062
        k(  133) = (   0.0198333  -5.4695582   0.2500000), wk =   0.0039062
        k(  134) = (  -0.7630253  -5.9234382   0.3750000), wk =   0.0039062
        k(  135) = (   4.7169845  -2.7462779  -0.5000000), wk =   0.0039062
        k(  136) = (   3.9341260  -3.2001579  -0.3750000), wk =   0.0039062
        k(  137) = (   3.1512675  -3.6540380  -0.2500000), wk =   0.0039062
        k(  138) = (   2.3684089  -4.1079180  -0.1250000), wk =   0.0039062
        k(  139) = (   1.5855504  -3.6482886   0.0000000), wk =   0.0039062
        k(  140) = (   0.8026918  -4.1021686   0.1250000), wk =   0.0039062
        k(  141) = (   0.0198333  -4.5560487   0.2500000), wk =   0.0039062
        k(  142) = (  -0.7630253  -5.0099287   0.3750000), wk =   0.0039062
        k(  143) = (   4.7169845  -1.8327684  -0.5000000), wk =   0.0039062
        k(  144) = (   3.9341260  -2.2866484  -0.3750000), wk =   0.0039062
        k(  145) = (   3.1512675  -2.7405285  -0.2500000), wk =   0.0039062
        k(  146) = (   2.3684089  -3.1944085  -0.1250000), wk =   0.0039062
        k(  147) = (   1.5855504  -2.7347791   0.0000000), wk =   0.0039062
        k(  148) = (   0.8026918  -3.1886591   0.1250000), wk =   0.0039062
        k(  149) = (   0.0198333  -3.6425392   0.2500000), wk =   0.0039062
        k(  150) = (  -0.7630253  -4.0964192   0.3750000), wk =   0.0039062
        k(  151) = (   4.7169845  -0.9192589  -0.5000000), wk =   0.0039062
        k(  152) = (   3.9341260  -1.3731389  -0.3750000), wk =   0.0039062
        k(  153) = (   3.1512675  -1.8270190  -0.2500000), wk =   0.0039062
        k(  154) = (   2.3684089  -2.2808990  -0.1250000), wk =   0.0039062
        k(  155) = (   1.5855504  -1.8212696   0.0000000), wk =   0.0039062
        k(  156) = (   0.8026918  -2.2751496   0.1250000), wk =   0.0039062
        k(  157) = (   0.0198333  -2.7290297   0.2500000), wk =   0.0039062
        k(  158) = (  -0.7630253  -3.1829097   0.3750000), wk =   0.0039062
        k(  159) = (   4.7169845  -0.0057494  -0.5000000), wk =   0.0039062
        k(  160) = (   3.9341260  -0.4596294  -0.3750000), wk =   0.0039062
        k(  161) = (   3.1512675  -0.9135095  -0.2500000), wk =   0.0039062
        k(  162) = (   2.3684089  -1.3673895  -0.1250000), wk =   0.0039062
        k(  163) = (   2.3783256  -1.3616401   0.0000000), wk =   0.0039062
        k(  164) = (   1.5954670  -1.8155202   0.1250000), wk =   0.0039062
        k(  165) = (   0.8126085  -2.2694002   0.2500000), wk =   0.0039062
        k(  166) = (   0.0297499  -2.7232803   0.3750000), wk =   0.0039062
        k(  167) = (   5.5097597   0.4538800  -0.5000000), wk =   0.0039062
        k(  168) = (   4.7269012   0.0000000  -0.3750000), wk =   0.0039062
        k(  169) = (   3.9440427  -0.4538800  -0.2500000), wk =   0.0039062
        k(  170) = (   3.1611841  -0.9077601  -0.1250000), wk =   0.0039062
        k(  171) = (   2.3783256  -0.4481306   0.0000000), wk =   0.0039062
        k(  172) = (   1.5954670  -0.9020107   0.1250000), wk =   0.0039062
        k(  173) = (   0.8126085  -1.3558907   0.2500000), wk =   0.0039062
        k(  174) = (   0.0297499  -1.8097708   0.3750000), wk =   0.0039062
        k(  175) = (   5.5097597   1.3673895  -0.5000000), wk =   0.0039062
        k(  176) = (   4.7269012   0.9135095  -0.3750000), wk =   0.0039062
        k(  177) = (   3.9440427   0.4596294  -0.2500000), wk =   0.0039062
        k(  178) = (   3.1611841   0.0057494  -0.1250000), wk =   0.0039062
        k(  179) = (   2.3783256   0.4653788   0.0000000), wk =   0.0039062
        k(  180) = (   1.5954670   0.0114988   0.1250000), wk =   0.0039062
        k(  181) = (   0.8126085  -0.4423812   0.2500000), wk =   0.0039062
        k(  182) = (   0.0297499  -0.8962613   0.3750000), wk =   0.0039062
        k(  183) = (   5.5097597   2.2808990  -0.5000000), wk =   0.0039062
        k(  184) = (   4.7269012   1.8270190  -0.3750000), wk =   0.0039062
        k(  185) = (   3.9440427   1.3731389  -0.2500000), wk =   0.0039062
        k(  186) = (   3.1611841   0.9192589  -0.1250000), wk =   0.0039062
        k(  187) = (   2.3783256   1.3788883   0.0000000), wk =   0.0039062
        k(  188) = (   1.5954670   0.9250083   0.1250000), wk =   0.0039062
        k(  189) = (   0.8126085   0.4711282   0.2500000), wk =   0.0039062
        k(  190) = (   0.0297499   0.0172482   0.3750000), wk =   0.0039062
        k(  191) = (   5.5097597   3.1944085  -0.5000000), wk =   0.0039062
        k(  192) = (   4.7269012   2.7405285  -0.3750000), wk =   0.0039062
        k(  193) = (   3.9440427   2.2866484  -0.2500000), wk =   0.0039062
        k(  194) = (   3.1611841   1.8327684  -0.1250000), wk =   0.0039062
        k(  195) = (   2.3783256  -5.0156781   0.0000000), wk =   0.0039062
        k(  196) = (   1.5954670  -5.4695582   0.1250000), wk =   0.0039062
        k(  197) = (   0.8126085  -5.9234382   0.2500000), wk =   0.0039062
        k(  198) = (   0.0297499  -6.3773183   0.3750000), wk =   0.0039062
        k(  199) = (   5.5097597  -3.2001579  -0.5000000), wk =   0.0039062
        k(  200) = (   4.7269012  -3.6540380  -0.3750000), wk =   0.0039062
        k(  201) = (   3.9440427  -4.1079180  -0.2500000), wk =   0.0039062
        k(  202) = (   3.1611841  -4.5617981  -0.1250000), wk =   0.0039062
        k(  203) = (   2.3783256  -4.1021686   0.0000000), wk =   0.0039062
        k(  204) = (   1.5954670  -4.5560487   0.1250000), wk =   0.0039062
        k(  205) = (   0.8126085  -5.0099287   0.2500000), wk =   0.0039062
        k(  206) = (   0.0297499  -5.4638088   0.3750000), wk =   0.0039062
        k(  207) = (   5.5097597  -2.2866484  -0.5000000), wk =   0.0039062
        k(  208) = (   4.7269012  -2.7405285  -0.3750000), wk =   0.0039062
        k(  209) = (   3.9440427  -3.1944085  -0.2500000), wk =   0.0039062
        k(  210) = (   3.1611841  -3.6482886  -0.1250000), wk =   0.0039062
        k(  211) = (   2.3783256  -3.1886591   0.0000000), wk =   0.0039062
        k(  212) = (   1.5954670  -3.6425392   0.1250000), wk =   0.0039062
        k(  213) = (   0.8126085  -4.0964192   0.2500000), wk =   0.0039062
        k(  214) = (   0.0297499  -4.5502993   0.3750000), wk =   0.0039062
        k(  215) = (   5.5097597  -1.3731389  -0.5000000), wk =   0.0039062
        k(  216) = (   4.7269012  -1.8270190  -0.3750000), wk =   0.0039062
        k(  217) = (   3.9440427  -2.2808990  -0.2500000), wk =   0.0039062
        k(  218) = (   3.1611841  -2.7347791  -0.1250000), wk =   0.0039062
        k(  219) = (   2.3783256  -2.2751496   0.0000000), wk =   0.0039062
        k(  220) = (   1.5954670  -2.7290297   0.1250000), wk =   0.0039062
        k(  221) = (   0.8126085  -3.1829097   0.2500000), wk =   0.0039062
        k(  222) = (   0.0297499  -3.6367898   0.3750000), wk =   0.0039062
        k(  223) = (   5.5097597  -0.4596294  -0.5000000), wk =   0.0039062
        k(  224) = (   4.7269012  -0.9135095  -0.3750000), wk =   0.0039062
        k(  225) = (   3.9440427  -1.3673895  -0.2500000), wk =   0.0039062
        k(  226) = (   3.1611841  -1.8212696  -0.1250000), wk =   0.0039062
        k(  227) = (  -3.1711008   1.8155202   0.0000000), wk =   0.0019531
        k(  228) = (  -3.9539593   1.3616401   0.1250000), wk =   0.0039062
        k(  229) = (  -4.7368178   0.9077601   0.2500000), wk =   0.0039062
        k(  230) = (  -5.5196764   0.4538800   0.3750000), wk =   0.0039062
        k(  231) = (  -0.0396666   3.6310404  -0.5000000), wk =   0.0019531
        k(  232) = (  -3.1711008   2.7290297   0.0000000), wk =   0.0039062
        k(  233) = (  -3.9539593   2.2751496   0.1250000), wk =   0.0039062
        k(  234) = (  -4.7368178   1.8212696   0.2500000), wk =   0.0039062
        k(  235) = (  -5.5196764   1.3673895   0.3750000), wk =   0.0039062
        k(  236) = (  -0.0396666   4.5445499  -0.5000000), wk =   0.0039062
        k(  237) = (  -0.8225251   4.0906698  -0.3750000), wk =   0.0039062
        k(  238) = (  -1.6053837   3.6367898  -0.2500000), wk =   0.0039062
        k(  239) = (  -2.3882422   3.1829097  -0.1250000), wk =   0.0039062
        k(  240) = (  -3.1711008   3.6425392   0.0000000), wk =   0.0039062
        k(  241) = (  -3.9539593   3.1886591   0.1250000), wk =   0.0039062
        k(  242) = (  -4.7368178   2.7347791   0.2500000), wk =   0.0039062
        k(  243) = (  -5.5196764   2.2808990   0.3750000), wk =   0.0039062
        k(  244) = (  -0.0396666   5.4580594  -0.5000000), wk =   0.0039062
        k(  245) = (  -0.8225251   5.0041793  -0.3750000), wk =   0.0039062
        k(  246) = (  -1.6053837   4.5502993  -0.2500000), wk =   0.0039062
        k(  247) = (  -2.3882422   4.0964192  -0.1250000), wk =   0.0039062
        k(  248) = (  -3.1711008   4.5560487   0.0000000), wk =   0.0039062
        k(  249) = (  -3.9539593   4.1021686   0.1250000), wk =   0.0039062
        k(  250) = (  -4.7368178   3.6482886   0.2500000), wk =   0.0039062
        k(  251) = (  -5.5196764   3.1944085   0.3750000), wk =   0.0039062
        k(  252) = (  -0.0396666   6.3715689  -0.5000000), wk =   0.0039062
        k(  253) = (  -0.8225251   5.9176888  -0.3750000), wk =   0.0039062
        k(  254) = (  -1.6053837   5.4638088  -0.2500000), wk =   0.0039062
        k(  255) = (  -2.3882422   5.0099287  -0.1250000), wk =   0.0039062
        k(  256) = (  -3.1711008  -1.8385178   0.0000000), wk =   0.0019531
        k(  257) = (  -3.9539593  -2.2923978   0.1250000), wk =   0.0039062
        k(  258) = (  -4.7368178  -2.7462779   0.2500000), wk =   0.0039062
        k(  259) = (  -5.5196764  -3.2001579   0.3750000), wk =   0.0039062
        k(  260) = (  -0.0396666  -0.0229976  -0.5000000), wk =   0.0019531

                       cryst. coord.
        k(    1) = (   0.0000000   0.0000000   0.0000000), wk =   0.0019531
        k(    2) = (   0.0000000   0.0000000   0.1250000), wk =   0.0039062
        k(    3) = (   0.0000000   0.0000000   0.2500000), wk =   0.0039062
        k(    4) = (   0.0000000   0.0000000   0.3750000), wk =   0.0039062
        k(    5) = (   0.0000000   0.0000000  -0.5000000), wk =   0.0019531
        k(    6) = (   0.0000000   0.1250000   0.0000000), wk =   0.0039062
        k(    7) = (   0.0000000   0.1250000   0.1250000), wk =   0.0039062
        k(    8) = (   0.0000000   0.1250000   0.2500000), wk =   0.0039062
        k(    9) = (   0.0000000   0.1250000   0.3750000), wk =   0.0039062
        k(   10) = (   0.0000000   0.1250000  -0.5000000), wk =   0.0039062
        k(   11) = (  -0.0000000   0.1250000  -0.3750000), wk =   0.0039062
        k(   12) = (   0.0000000   0.1250000  -0.2500000), wk =   0.0039062
        k(   13) = (   0.0000000   0.1250000  -0.1250000), wk =   0.0039062
        k(   14) = (   0.0000000   0.2500000   0.0000000), wk =   0.0039062
        k(   15) = (   0.0000000   0.2500000   0.1250000), wk =   0.0039062
        k(   16) = (   0.0000000   0.2500000   0.2500000), wk =   0.0039062
        k(   17) = (   0.0000000   0.2500000   0.3750000), wk =   0.0039062
        k(   18) = (   0.0000000   0.2500000  -0.5000000), wk =   0.0039062
        k(   19) = (  -0.0000000   0.2500000  -0.3750000), wk =   0.0039062
        k(   20) = (   0.0000000   0.2500000  -0.2500000), wk =   0.0039062
        k(   21) = (   0.0000000   0.2500000  -0.1250000), wk =   0.0039062
        k(   22) = (   0.0000000   0.3750000   0.0000000), wk =   0.0039062
        k(   23) = (   0.0000000   0.3750000   0.1250000), wk =   0.0039062
        k(   24) = (   0.0000000   0.3750000   0.2500000), wk =   0.0039062
        k(   25) = (   0.0000000   0.3750000   0.3750000), wk =   0.0039062
        k(   26) = (   0.0000000   0.3750000  -0.5000000), wk =   0.0039062
        k(   27) = (  -0.0000000   0.3750000  -0.3750000), wk =   0.0039062
        k(   28) = (   0.0000000   0.3750000  -0.2500000), wk =   0.0039062
        k(   29) = (   0.0000000   0.3750000  -0.1250000), wk =   0.0039062
        k(   30) = (   0.0000000  -0.5000000   0.0000000), wk =   0.0019531
        k(   31) = (   0.0000000  -0.5000000   0.1250000), wk =   0.0039062
        k(   32) = (   0.0000000  -0.5000000   0.2500000), wk =   0.0039062
        k(   33) = (   0.0000000  -0.5000000   0.3750000), wk =   0.0039062
        k(   34) = (   0.0000000  -0.5000000  -0.5000000), wk =   0.0019531
        k(   35) = (   0.1250000   0.0000000   0.0000000), wk =   0.0039062
        k(   36) = (   0.1250000   0.0000000   0.1250000), wk =   0.0039062
        k(   37) = (   0.1250000   0.0000000   0.2500000), wk =   0.0039062
        k(   38) = (   0.1250000   0.0000000   0.3750000), wk =   0.0039062
        k(   39) = (   0.1250000   0.0000000  -0.5000000), wk =   0.0039062
        k(   40) = (   0.1250000  -0.0000000  -0.3750000), wk =   0.0039062
        k(   41) = (   0.1250000  -0.0000000  -0.2500000), wk =   0.0039062
        k(   42) = (   0.1250000  -0.0000000  -0.1250000), wk =   0.0039062
        k(   43) = (   0.1250000   0.1250000   0.0000000), wk =   0.0039062
        k(   44) = (   0.1250000   0.1250000   0.1250000), wk =   0.0039062
        k(   45) = (   0.1250000   0.1250000   0.2500000), wk =   0.0039062
        k(   46) = (   0.1250000   0.1250000   0.3750000), wk =   0.0039062
        k(   47) = (   0.1250000   0.1250000  -0.5000000), wk =   0.0039062
        k(   48) = (   0.1250000   0.1250000  -0.3750000), wk =   0.0039062
        k(   49) = (   0.1250000   0.1250000  -0.2500000), wk =   0.0039062
        k(   50) = (   0.1250000   0.1250000  -0.1250000), wk =   0.0039062
        k(   51) = (   0.1250000   0.2500000   0.0000000), wk =   0.0039062
        k(   52) = (   0.1250000   0.2500000   0.1250000), wk =   0.0039062
        k(   53) = (   0.1250000   0.2500000   0.2500000), wk =   0.0039062
        k(   54) = (   0.1250000   0.2500000   0.3750000), wk =   0.0039062
        k(   55) = (   0.1250000   0.2500000  -0.5000000), wk =   0.0039062
        k(   56) = (   0.1250000   0.2500000  -0.3750000), wk =   0.0039062
        k(   57) = (   0.1250000   0.2500000  -0.2500000), wk =   0.0039062
        k(   58) = (   0.1250000   0.2500000  -0.1250000), wk =   0.0039062
        k(   59) = (   0.1250000   0.3750000   0.0000000), wk =   0.0039062
        k(   60) = (   0.1250000   0.3750000   0.1250000), wk =   0.0039062
        k(   61) = (   0.1250000   0.3750000   0.2500000), wk =   0.0039062
        k(   62) = (   0.1250000   0.3750000   0.3750000), wk =   0.0039062
        k(   63) = (   0.1250000   0.3750000  -0.5000000), wk =   0.0039062
        k(   64) = (   0.1250000   0.3750000  -0.3750000), wk =   0.0039062
        k(   65) = (   0.1250000   0.3750000  -0.2500000), wk =   0.0039062
        k(   66) = (   0.1250000   0.3750000  -0.1250000), wk =   0.0039062
        k(   67) = (   0.1250000  -0.5000000   0.0000000), wk =   0.0039062
        k(   68) = (   0.1250000  -0.5000000   0.1250000), wk =   0.0039062
        k(   69) = (   0.1250000  -0.5000000   0.2500000), wk =   0.0039062
        k(   70) = (   0.1250000  -0.5000000   0.3750000), wk =   0.0039062
        k(   71) = (   0.1250000  -0.5000000  -0.5000000), wk =   0.0039062
        k(   72) = (   0.1250000  -0.5000000  -0.3750000), wk =   0.0039062
        k(   73) = (   0.1250000  -0.5000000  -0.2500000), wk =   0.0039062
        k(   74) = (   0.1250000  -0.5000000  -0.1250000), wk =   0.0039062
        k(   75) = (   0.1250000  -0.3750000   0.0000000), wk =   0.0039062
        k(   76) = (   0.1250000  -0.3750000   0.1250000), wk =   0.0039062
        k(   77) = (   0.1250000  -0.3750000   0.2500000), wk =   0.0039062
        k(   78) = (   0.1250000  -0.3750000   0.3750000), wk =   0.0039062
        k(   79) = (   0.1250000  -0.3750000  -0.5000000), wk =   0.0039062
        k(   80) = (   0.1250000  -0.3750000  -0.3750000), wk =   0.0039062
        k(   81) = (   0.1250000  -0.3750000  -0.2500000), wk =   0.0039062
        k(   82) = (   0.1250000  -0.3750000  -0.1250000), wk =   0.0039062
        k(   83) = (   0.1250000  -0.2500000   0.0000000), wk =   0.0039062
        k(   84) = (   0.1250000  -0.2500000   0.1250000), wk =   0.0039062
        k(   85) = (   0.1250000  -0.2500000   0.2500000), wk =   0.0039062
        k(   86) = (   0.1250000  -0.2500000   0.3750000), wk =   0.0039062
        k(   87) = (   0.1250000  -0.2500000  -0.5000000), wk =   0.0039062
        k(   88) = (   0.1250000  -0.2500000  -0.3750000), wk =   0.0039062
        k(   89) = (   0.1250000  -0.2500000  -0.2500000), wk =   0.0039062
        k(   90) = (   0.1250000  -0.2500000  -0.1250000), wk =   0.0039062
        k(   91) = (   0.1250000  -0.1250000   0.0000000), wk =   0.0039062
        k(   92) = (   0.1250000  -0.1250000   0.1250000), wk =   0.0039062
        k(   93) = (   0.1250000  -0.1250000   0.2500000), wk =   0.0039062
        k(   94) = (   0.1250000  -0.1250000   0.3750000), wk =   0.0039062
        k(   95) = (   0.1250000  -0.1250000  -0.5000000), wk =   0.0039062
        k(   96) = (   0.1250000  -0.1250000  -0.3750000), wk =   0.0039062
        k(   97) = (   0.1250000  -0.1250000  -0.2500000), wk =   0.0039062
        k(   98) = (   0.1250000  -0.1250000  -0.1250000), wk =   0.0039062
        k(   99) = (   0.2500000   0.0000000   0.0000000), wk =   0.0039062
        k(  100) = (   0.2500000   0.0000000   0.1250000), wk =   0.0039062
        k(  101) = (   0.2500000   0.0000000   0.2500000), wk =   0.0039062
        k(  102) = (   0.2500000   0.0000000   0.3750000), wk =   0.0039062
        k(  103) = (   0.2500000  -0.0000000  -0.5000000), wk =   0.0039062
        k(  104) = (   0.2500000   0.0000000  -0.3750000), wk =   0.0039062
        k(  105) = (   0.2500000  -0.0000000  -0.2500000), wk =   0.0039062
        k(  106) = (   0.2500000  -0.0000000  -0.1250000), wk =   0.0039062
        k(  107) = (   0.2500000   0.1250000   0.0000000), wk =   0.0039062
        k(  108) = (   0.2500000   0.1250000   0.1250000), wk =   0.0039062
        k(  109) = (   0.2500000   0.1250000   0.2500000), wk =   0.0039062
        k(  110) = (   0.2500000   0.1250000   0.3750000), wk =   0.0039062
        k(  111) = (   0.2500000   0.1250000  -0.5000000), wk =   0.0039062
        k(  112) = (   0.2500000   0.1250000  -0.3750000), wk =   0.0039062
        k(  113) = (   0.2500000   0.1250000  -0.2500000), wk =   0.0039062
        k(  114) = (   0.2500000   0.1250000  -0.1250000), wk =   0.0039062
        k(  115) = (   0.2500000   0.2500000   0.0000000), wk =   0.0039062
        k(  116) = (   0.2500000   0.2500000   0.1250000), wk =   0.0039062
        k(  117) = (   0.2500000   0.2500000   0.2500000), wk =   0.0039062
        k(  118) = (   0.2500000   0.2500000   0.3750000), wk =   0.0039062
        k(  119) = (   0.2500000   0.2500000  -0.5000000), wk =   0.0039062
        k(  120) = (   0.2500000   0.2500000  -0.3750000), wk =   0.0039062
        k(  121) = (   0.2500000   0.2500000  -0.2500000), wk =   0.0039062
        k(  122) = (   0.2500000   0.2500000  -0.1250000), wk =   0.0039062
        k(  123) = (   0.2500000   0.3750000   0.0000000), wk =   0.0039062
        k(  124) = (   0.2500000   0.3750000   0.1250000), wk =   0.0039062
        k(  125) = (   0.2500000   0.3750000   0.2500000), wk =   0.0039062
        k(  126) = (   0.2500000   0.3750000   0.3750000), wk =   0.0039062
        k(  127) = (   0.2500000   0.3750000  -0.5000000), wk =   0.0039062
        k(  128) = (   0.2500000   0.3750000  -0.3750000), wk =   0.0039062
        k(  129) = (   0.2500000   0.3750000  -0.2500000), wk =   0.0039062
        k(  130) = (   0.2500000   0.3750000  -0.1250000), wk =   0.0039062
        k(  131) = (   0.2500000  -0.5000000   0.0000000), wk =   0.0039062
        k(  132) = (   0.2500000  -0.5000000   0.1250000), wk =   0.0039062
        k(  133) = (   0.2500000  -0.5000000   0.2500000), wk =   0.0039062
        k(  134) = (   0.2500000  -0.5000000   0.3750000), wk =   0.0039062
        k(  135) = (   0.2500000  -0.5000000  -0.5000000), wk =   0.0039062
        k(  136) = (   0.2500000  -0.5000000  -0.3750000), wk =   0.0039062
        k(  137) = (   0.2500000  -0.5000000  -0.2500000), wk =   0.0039062
        k(  138) = (   0.2500000  -0.5000000  -0.1250000), wk =   0.0039062
        k(  139) = (   0.2500000  -0.3750000   0.0000000), wk =   0.0039062
        k(  140) = (   0.2500000  -0.3750000   0.1250000), wk =   0.0039062
        k(  141) = (   0.2500000  -0.3750000   0.2500000), wk =   0.0039062
        k(  142) = (   0.2500000  -0.3750000   0.3750000), wk =   0.0039062
        k(  143) = (   0.2500000  -0.3750000  -0.5000000), wk =   0.0039062
        k(  144) = (   0.2500000  -0.3750000  -0.3750000), wk =   0.0039062
        k(  145) = (   0.2500000  -0.3750000  -0.2500000), wk =   0.0039062
        k(  146) = (   0.2500000  -0.3750000  -0.1250000), wk =   0.0039062
        k(  147) = (   0.2500000  -0.2500000   0.0000000), wk =   0.0039062
        k(  148) = (   0.2500000  -0.2500000   0.1250000), wk =   0.0039062
        k(  149) = (   0.2500000  -0.2500000   0.2500000), wk =   0.0039062
        k(  150) = (   0.2500000  -0.2500000   0.3750000), wk =   0.0039062
        k(  151) = (   0.2500000  -0.2500000  -0.5000000), wk =   0.0039062
        k(  152) = (   0.2500000  -0.2500000  -0.3750000), wk =   0.0039062
        k(  153) = (   0.2500000  -0.2500000  -0.2500000), wk =   0.0039062
        k(  154) = (   0.2500000  -0.2500000  -0.1250000), wk =   0.0039062
        k(  155) = (   0.2500000  -0.1250000   0.0000000), wk =   0.0039062
        k(  156) = (   0.2500000  -0.1250000   0.1250000), wk =   0.0039062
        k(  157) = (   0.2500000  -0.1250000   0.2500000), wk =   0.0039062
        k(  158) = (   0.2500000  -0.1250000   0.3750000), wk =   0.0039062
        k(  159) = (   0.2500000  -0.1250000  -0.5000000), wk =   0.0039062
        k(  160) = (   0.2500000  -0.1250000  -0.3750000), wk =   0.0039062
        k(  161) = (   0.2500000  -0.1250000  -0.2500000), wk =   0.0039062
        k(  162) = (   0.2500000  -0.1250000  -0.1250000), wk =   0.0039062
        k(  163) = (   0.3750000   0.0000000   0.0000000), wk =   0.0039062
        k(  164) = (   0.3750000   0.0000000   0.1250000), wk =   0.0039062
        k(  165) = (   0.3750000   0.0000000   0.2500000), wk =   0.0039062
        k(  166) = (   0.3750000   0.0000000   0.3750000), wk =   0.0039062
        k(  167) = (   0.3750000   0.0000000  -0.5000000), wk =   0.0039062
        k(  168) = (   0.3750000  -0.0000000  -0.3750000), wk =   0.0039062
        k(  169) = (   0.3750000   0.0000000  -0.2500000), wk =   0.0039062
        k(  170) = (   0.3750000   0.0000000  -0.1250000), wk =   0.0039062
        k(  171) = (   0.3750000   0.1250000   0.0000000), wk =   0.0039062
        k(  172) = (   0.3750000   0.1250000   0.1250000), wk =   0.0039062
        k(  173) = (   0.3750000   0.1250000   0.2500000), wk =   0.0039062
        k(  174) = (   0.3750000   0.1250000   0.3750000), wk =   0.0039062
        k(  175) = (   0.3750000   0.1250000  -0.5000000), wk =   0.0039062
        k(  176) = (   0.3750000   0.1250000  -0.3750000), wk =   0.0039062
        k(  177) = (   0.3750000   0.1250000  -0.2500000), wk =   0.0039062
        k(  178) = (   0.3750000   0.1250000  -0.1250000), wk =   0.0039062
        k(  179) = (   0.3750000   0.2500000   0.0000000), wk =   0.0039062
        k(  180) = (   0.3750000   0.2500000   0.1250000), wk =   0.0039062
        k(  181) = (   0.3750000   0.2500000   0.2500000), wk =   0.0039062
        k(  182) = (   0.3750000   0.2500000   0.3750000), wk =   0.0039062
        k(  183) = (   0.3750000   0.2500000  -0.5000000), wk =   0.0039062
        k(  184) = (   0.3750000   0.2500000  -0.3750000), wk =   0.0039062
        k(  185) = (   0.3750000   0.2500000  -0.2500000), wk =   0.0039062
        k(  186) = (   0.3750000   0.2500000  -0.1250000), wk =   0.0039062
        k(  187) = (   0.3750000   0.3750000   0.0000000), wk =   0.0039062
        k(  188) = (   0.3750000   0.3750000   0.1250000), wk =   0.0039062
        k(  189) = (   0.3750000   0.3750000   0.2500000), wk =   0.0039062
        k(  190) = (   0.3750000   0.3750000   0.3750000), wk =   0.0039062
        k(  191) = (   0.3750000   0.3750000  -0.5000000), wk =   0.0039062
        k(  192) = (   0.3750000   0.3750000  -0.3750000), wk =   0.0039062
        k(  193) = (   0.3750000   0.3750000  -0.2500000), wk =   0.0039062
        k(  194) = (   0.3750000   0.3750000  -0.1250000), wk =   0.0039062
        k(  195) = (   0.3750000  -0.5000000   0.0000000), wk =   0.0039062
        k(  196) = (   0.3750000  -0.5000000   0.1250000), wk =   0.0039062
        k(  197) = (   0.3750000  -0.5000000   0.2500000), wk =   0.0039062
        k(  198) = (   0.3750000  -0.5000000   0.3750000), wk =   0.0039062
        k(  199) = (   0.3750000  -0.5000000  -0.5000000), wk =   0.0039062
        k(  200) = (   0.3750000  -0.5000000  -0.3750000), wk =   0.0039062
        k(  201) = (   0.3750000  -0.5000000  -0.2500000), wk =   0.0039062
        k(  202) = (   0.3750000  -0.5000000  -0.1250000), wk =   0.0039062
        k(  203) = (   0.3750000  -0.3750000   0.0000000), wk =   0.0039062
        k(  204) = (   0.3750000  -0.3750000   0.1250000), wk =   0.0039062
        k(  205) = (   0.3750000  -0.3750000   0.2500000), wk =   0.0039062
        k(  206) = (   0.3750000  -0.3750000   0.3750000), wk =   0.0039062
        k(  207) = (   0.3750000  -0.3750000  -0.5000000), wk =   0.0039062
        k(  208) = (   0.3750000  -0.3750000  -0.3750000), wk =   0.0039062
        k(  209) = (   0.3750000  -0.3750000  -0.2500000), wk =   0.0039062
        k(  210) = (   0.3750000  -0.3750000  -0.1250000), wk =   0.0039062
        k(  211) = (   0.3750000  -0.2500000   0.0000000), wk =   0.0039062
        k(  212) = (   0.3750000  -0.2500000   0.1250000), wk =   0.0039062
        k(  213) = (   0.3750000  -0.2500000   0.2500000), wk =   0.0039062
        k(  214) = (   0.3750000  -0.2500000   0.3750000), wk =   0.0039062
        k(  215) = (   0.3750000  -0.2500000  -0.5000000), wk =   0.0039062
        k(  216) = (   0.3750000  -0.2500000  -0.3750000), wk =   0.0039062
        k(  217) = (   0.3750000  -0.2500000  -0.2500000), wk =   0.0039062
        k(  218) = (   0.3750000  -0.2500000  -0.1250000), wk =   0.0039062
        k(  219) = (   0.3750000  -0.1250000   0.0000000), wk =   0.0039062
        k(  220) = (   0.3750000  -0.1250000   0.1250000), wk =   0.0039062
        k(  221) = (   0.3750000  -0.1250000   0.2500000), wk =   0.0039062
        k(  222) = (   0.3750000  -0.1250000   0.3750000), wk =   0.0039062
        k(  223) = (   0.3750000  -0.1250000  -0.5000000), wk =   0.0039062
        k(  224) = (   0.3750000  -0.1250000  -0.3750000), wk =   0.0039062
        k(  225) = (   0.3750000  -0.1250000  -0.2500000), wk =   0.0039062
        k(  226) = (   0.3750000  -0.1250000  -0.1250000), wk =   0.0039062
        k(  227) = (  -0.5000000   0.0000000   0.0000000), wk =   0.0019531
        k(  228) = (  -0.5000000   0.0000000   0.1250000), wk =   0.0039062
        k(  229) = (  -0.5000000   0.0000000   0.2500000), wk =   0.0039062
        k(  230) = (  -0.5000000   0.0000000   0.3750000), wk =   0.0039062
        k(  231) = (  -0.5000000  -0.0000000  -0.5000000), wk =   0.0019531
        k(  232) = (  -0.5000000   0.1250000   0.0000000), wk =   0.0039062
        k(  233) = (  -0.5000000   0.1250000   0.1250000), wk =   0.0039062
        k(  234) = (  -0.5000000   0.1250000   0.2500000), wk =   0.0039062
        k(  235) = (  -0.5000000   0.1250000   0.3750000), wk =   0.0039062
        k(  236) = (  -0.5000000   0.1250000  -0.5000000), wk =   0.0039062
        k(  237) = (  -0.5000000   0.1250000  -0.3750000), wk =   0.0039062
        k(  238) = (  -0.5000000   0.1250000  -0.2500000), wk =   0.0039062
        k(  239) = (  -0.5000000   0.1250000  -0.1250000), wk =   0.0039062
        k(  240) = (  -0.5000000   0.2500000   0.0000000), wk =   0.0039062
        k(  241) = (  -0.5000000   0.2500000   0.1250000), wk =   0.0039062
        k(  242) = (  -0.5000000   0.2500000   0.2500000), wk =   0.0039062
        k(  243) = (  -0.5000000   0.2500000   0.3750000), wk =   0.0039062
        k(  244) = (  -0.5000000   0.2500000  -0.5000000), wk =   0.0039062
        k(  245) = (  -0.5000000   0.2500000  -0.3750000), wk =   0.0039062
        k(  246) = (  -0.5000000   0.2500000  -0.2500000), wk =   0.0039062
        k(  247) = (  -0.5000000   0.2500000  -0.1250000), wk =   0.0039062
        k(  248) = (  -0.5000000   0.3750000   0.0000000), wk =   0.0039062
        k(  249) = (  -0.5000000   0.3750000   0.1250000), wk =   0.0039062
        k(  250) = (  -0.5000000   0.3750000   0.2500000), wk =   0.0039062
        k(  251) = (  -0.5000000   0.3750000   0.3750000), wk =   0.0039062
        k(  252) = (  -0.5000000   0.3750000  -0.5000000), wk =   0.0039062
        k(  253) = (  -0.5000000   0.3750000  -0.3750000), wk =   0.0039062
        k(  254) = (  -0.5000000   0.3750000  -0.2500000), wk =   0.0039062
        k(  255) = (  -0.5000000   0.3750000  -0.1250000), wk =   0.0039062
        k(  256) = (  -0.5000000  -0.5000000   0.0000000), wk =   0.0019531
        k(  257) = (  -0.5000000  -0.5000000   0.1250000), wk =   0.0039062
        k(  258) = (  -0.5000000  -0.5000000   0.2500000), wk =   0.0039062
        k(  259) = (  -0.5000000  -0.5000000   0.3750000), wk =   0.0039062
        k(  260) = (  -0.5000000  -0.5000000  -0.5000000), wk =   0.0019531

     Dense  grid:   187971 G-vectors     FFT dimensions: ( 256, 256, 256)

     Dynamical RAM for                 wfc:       0.46 MB

     Dynamical RAM for     wfc (w. buffer):       0.46 MB

     Dynamical RAM for           str. fact:       0.18 MB

     Dynamical RAM for           local pot:       0.00 MB

     Dynamical RAM for          nlocal pot:       1.41 MB

     Dynamical RAM for                qrad:       4.98 MB

     Dynamical RAM for          rho,v,vnew:      12.27 MB

     Dynamical RAM for           G-vectors:       0.19 MB

     Dynamical RAM for          h,s,v(r/c):       1.26 MB

     Dynamical RAM for          <psi|beta>:       0.32 MB

     Dynamical RAM for                 psi:       0.93 MB

     Dynamical RAM for                hpsi:       0.93 MB

     Dynamical RAM for                spsi:       0.93 MB

     Dynamical RAM for      wfcinit/wfcrot:       1.16 MB

     Dynamical RAM for           addusdens:       8.74 MB

     Estimated static dynamical RAM per process >      31.72 MB

     Estimated max dynamical RAM per process >      40.45 MB

     Estimated total dynamical RAM >       2.53 GB

     Check: negative core charge=   -0.000015
     Generating pointlists ...
     new r_m :   0.0448 (alat units)  2.3181 (a.u.) for type    1
     new r_m :   0.0448 (alat units)  2.3181 (a.u.) for type    2
     new r_m :   0.0456 (alat units)  2.3625 (a.u.) for type    3
     new r_m :   0.0448 (alat units)  2.3181 (a.u.) for type    4

     The potential is recalculated from file :
     ./tmp/MnBi2Te4.save/charge-density

     Starting wfcs are   88 randomized atomic wfcs
     Checking if some PAW data can be deallocated... 
       PAW data deallocated on   59 nodes for type:  1
       PAW data deallocated on   59 nodes for type:  2
       PAW data deallocated on   44 nodes for type:  3
       PAW data deallocated on   30 nodes for type:  4

     Band Structure Calculation
     Davidson diagonalization with overlap

     Computing kpt #:     1  of   520
     total cpu time spent up to now is       24.2 secs

     Computing kpt #:     2  of   520
     total cpu time spent up to now is       52.6 secs

     Computing kpt #:     3  of   520
     total cpu time spent up to now is       74.1 secs

     Computing kpt #:     4  of   520
     total cpu time spent up to now is       92.2 secs

     Computing kpt #:     5  of   520
     total cpu time spent up to now is      109.5 secs

     Computing kpt #:     6  of   520
     total cpu time spent up to now is      133.4 secs

     Computing kpt #:     7  of   520
     total cpu time spent up to now is      157.2 secs

     Computing kpt #:     8  of   520
     total cpu time spent up to now is      179.8 secs

     Computing kpt #:     9  of   520
     total cpu time spent up to now is      200.9 secs

     Computing kpt #:    10  of   520
     total cpu time spent up to now is      220.4 secs

     Computing kpt #:    11  of   520
     total cpu time spent up to now is      239.8 secs

     Computing kpt #:    12  of   520
     total cpu time spent up to now is      260.7 secs

     Computing kpt #:    13  of   520
     total cpu time spent up to now is      281.4 secs

     Computing kpt #:    14  of   520
     c_bands:  1 eigenvalues not converged
     total cpu time spent up to now is      304.8 secs

     Computing kpt #:    15  of   520
     total cpu time spent up to now is      327.2 secs

     Computing kpt #:    16  of   520
     total cpu time spent up to now is      347.8 secs

     Computing kpt #:    17  of   520
     total cpu time spent up to now is      368.5 secs

     Computing kpt #:    18  of   520
     total cpu time spent up to now is      387.8 secs

     Computing kpt #:    19  of   520
     total cpu time spent up to now is      406.2 secs

     Computing kpt #:    20  of   520
     total cpu time spent up to now is      424.8 secs

     Computing kpt #:    21  of   520
     total cpu time spent up to now is      446.3 secs

     Computing kpt #:    22  of   520
     total cpu time spent up to now is      465.7 secs

     Computing kpt #:    23  of   520
     total cpu time spent up to now is      485.2 secs

     Computing kpt #:    24  of   520
     total cpu time spent up to now is      507.7 secs

     Computing kpt #:    25  of   520
     total cpu time spent up to now is      525.8 secs

     Computing kpt #:    26  of   520
     total cpu time spent up to now is      544.3 secs

     Computing kpt #:    27  of   520
     total cpu time spent up to now is      562.8 secs

     Computing kpt #:    28  of   520
     total cpu time spent up to now is      581.5 secs

     Computing kpt #:    29  of   520
     total cpu time spent up to now is      602.4 secs

     Computing kpt #:    30  of   520
     total cpu time spent up to now is      620.9 secs

     Computing kpt #:    31  of   520
     total cpu time spent up to now is      641.4 secs

     Computing kpt #:    32  of   520
     total cpu time spent up to now is      660.8 secs

     Computing kpt #:    33  of   520
     total cpu time spent up to now is      680.5 secs

     Computing kpt #:    34  of   520
     total cpu time spent up to now is      698.6 secs

     Computing kpt #:    35  of   520
     total cpu time spent up to now is      722.0 secs

     Computing kpt #:    36  of   520
     total cpu time spent up to now is      745.0 secs

     Computing kpt #:    37  of   520
     total cpu time spent up to now is      767.1 secs

     Computing kpt #:    38  of   520
     total cpu time spent up to now is      788.0 secs

     Computing kpt #:    39  of   520
     total cpu time spent up to now is      807.3 secs

     Computing kpt #:    40  of   520
     total cpu time spent up to now is      826.8 secs

     Computing kpt #:    41  of   520
     total cpu time spent up to now is      847.9 secs

     Computing kpt #:    42  of   520
     total cpu time spent up to now is      869.9 secs

     Computing kpt #:    43  of   520
     total cpu time spent up to now is      893.5 secs

     Computing kpt #:    44  of   520
     total cpu time spent up to now is      916.6 secs

     Computing kpt #:    45  of   520
     total cpu time spent up to now is      939.9 secs

     Computing kpt #:    46  of   520
     c_bands:  1 eigenvalues not converged
     total cpu time spent up to now is      963.2 secs

     Computing kpt #:    47  of   520
     total cpu time spent up to now is      981.8 secs

     Computing kpt #:    48  of   520
     total cpu time spent up to now is      999.2 secs

     Computing kpt #:    49  of   520
     total cpu time spent up to now is     1017.4 secs

     Computing kpt #:    50  of   520
     total cpu time spent up to now is     1037.3 secs

     Computing kpt #:    51  of   520
     total cpu time spent up to now is     1059.8 secs

     Computing kpt #:    52  of   520
     total cpu time spent up to now is     1082.8 secs

     Computing kpt #:    53  of   520
     total cpu time spent up to now is     1106.2 secs

     Computing kpt #:    54  of   520
     total cpu time spent up to now is     1129.0 secs

     Computing kpt #:    55  of   520
     total cpu time spent up to now is     1150.0 secs

     Computing kpt #:    56  of   520
     total cpu time spent up to now is     1169.1 secs

     Computing kpt #:    57  of   520
     total cpu time spent up to now is     1232.0 secs

     Computing kpt #:    58  of   520
     total cpu time spent up to now is     1254.4 secs

     Computing kpt #:    59  of   520
     total cpu time spent up to now is     1275.6 secs

     Computing kpt #:    60  of   520
     c_bands:  1 eigenvalues not converged
     total cpu time spent up to now is     1298.9 secs

     Computing kpt #:    61  of   520
     total cpu time spent up to now is     1323.0 secs

     Computing kpt #:    62  of   520
     total cpu time spent up to now is     1345.3 secs

     Computing kpt #:    63  of   520
     total cpu time spent up to now is     1366.4 secs

     Computing kpt #:    64  of   520
     total cpu time spent up to now is     1385.7 secs

     Computing kpt #:    65  of   520
     total cpu time spent up to now is     1404.8 secs

     Computing kpt #:    66  of   520
     total cpu time spent up to now is     1424.1 secs

     Computing kpt #:    67  of   520
     total cpu time spent up to now is     1446.2 secs

     Computing kpt #:    68  of   520
     total cpu time spent up to now is     1464.7 secs

     Computing kpt #:    69  of   520
     total cpu time spent up to now is     1485.3 secs

     Computing kpt #:    70  of   520
     total cpu time spent up to now is     1507.6 secs

     Computing kpt #:    71  of   520
     total cpu time spent up to now is     1525.7 secs

     Computing kpt #:    72  of   520
     total cpu time spent up to now is     1543.9 secs

     Computing kpt #:    73  of   520
     total cpu time spent up to now is     1562.2 secs

     Computing kpt #:    74  of   520
     total cpu time spent up to now is     1595.0 secs

     Computing kpt #:    75  of   520
     total cpu time spent up to now is     1744.0 secs

     Computing kpt #:    76  of   520
     total cpu time spent up to now is     1880.8 secs

     Computing kpt #:    77  of   520
     total cpu time spent up to now is     2043.8 secs

     Computing kpt #:    78  of   520
     total cpu time spent up to now is     2196.1 secs

     Computing kpt #:    79  of   520
     total cpu time spent up to now is     2299.0 secs

     Computing kpt #:    80  of   520
     total cpu time spent up to now is     2316.5 secs

     Computing kpt #:    81  of   520
     total cpu time spent up to now is     2334.8 secs

     Computing kpt #:    82  of   520
     total cpu time spent up to now is     2354.3 secs

     Computing kpt #:    83  of   520
     total cpu time spent up to now is     2374.0 secs

     Computing kpt #:    84  of   520
     total cpu time spent up to now is     2392.2 secs

     Computing kpt #:    85  of   520
     total cpu time spent up to now is     2412.1 secs

     Computing kpt #:    86  of   520
     total cpu time spent up to now is     2430.7 secs

     Computing kpt #:    87  of   520
     total cpu time spent up to now is     2449.4 secs

     Computing kpt #:    88  of   520
     total cpu time spent up to now is     2467.7 secs

     Computing kpt #:    89  of   520
     total cpu time spent up to now is     2486.7 secs

     Computing kpt #:    90  of   520
     total cpu time spent up to now is     2509.1 secs

     Computing kpt #:    91  of   520
     total cpu time spent up to now is     2531.5 secs

     Computing kpt #:    92  of   520
     total cpu time spent up to now is     2551.2 secs

     Computing kpt #:    93  of   520
     total cpu time spent up to now is     2572.5 secs

     Computing kpt #:    94  of   520
     total cpu time spent up to now is     2591.8 secs

     Computing kpt #:    95  of   520
     total cpu time spent up to now is     2610.4 secs

     Computing kpt #:    96  of   520
     total cpu time spent up to now is     2629.6 secs

     Computing kpt #:    97  of   520
     total cpu time spent up to now is     2650.7 secs

     Computing kpt #:    98  of   520
     total cpu time spent up to now is     2708.3 secs

     Computing kpt #:    99  of   520
     c_bands:  1 eigenvalues not converged
     total cpu time spent up to now is     2895.0 secs

     Computing kpt #:   100  of   520
     total cpu time spent up to now is     3072.0 secs

     Computing kpt #:   101  of   520
     total cpu time spent up to now is     3238.6 secs

     Computing kpt #:   102  of   520
     total cpu time spent up to now is     3414.9 secs

     Computing kpt #:   103  of   520
     total cpu time spent up to now is     3564.7 secs

     Computing kpt #:   104  of   520
     total cpu time spent up to now is     3710.8 secs

     Computing kpt #:   105  of   520
     total cpu time spent up to now is     3844.4 secs

     Computing kpt #:   106  of   520
     total cpu time spent up to now is     4009.2 secs

     Computing kpt #:   107  of   520
     total cpu time spent up to now is     4191.3 secs

     Computing kpt #:   108  of   520
     total cpu time spent up to now is     4369.8 secs

     Computing kpt #:   109  of   520
     total cpu time spent up to now is     4544.8 secs

     Computing kpt #:   110  of   520
     total cpu time spent up to now is     4728.9 secs

     Computing kpt #:   111  of   520
     total cpu time spent up to now is     4889.9 secs

     Computing kpt #:   112  of   520
     total cpu time spent up to now is     5037.1 secs

     Computing kpt #:   113  of   520
     total cpu time spent up to now is     5179.6 secs

     Computing kpt #:   114  of   520
     total cpu time spent up to now is     5355.6 secs

     Computing kpt #:   115  of   520
     total cpu time spent up to now is     5510.9 secs

     Computing kpt #:   116  of   520
     total cpu time spent up to now is     5687.7 secs

     Computing kpt #:   117  of   520
     total cpu time spent up to now is     5870.3 secs

     Computing kpt #:   118  of   520
     total cpu time spent up to now is     5992.6 secs

     Computing kpt #:   119  of   520
     c_bands:  1 eigenvalues not converged
     total cpu time spent up to now is     6016.7 secs

     Computing kpt #:   120  of   520
     total cpu time spent up to now is     6035.3 secs

     Computing kpt #:   121  of   520
     total cpu time spent up to now is     6052.9 secs

     Computing kpt #:   122  of   520
     total cpu time spent up to now is     6103.4 secs

     Computing kpt #:   123  of   520
     total cpu time spent up to now is     6266.0 secs

     Computing kpt #:   124  of   520
     total cpu time spent up to now is     6449.8 secs

     Computing kpt #:   125  of   520
     total cpu time spent up to now is     6627.3 secs

     Computing kpt #:   126  of   520
     total cpu time spent up to now is     6798.1 secs

     Computing kpt #:   127  of   520
     total cpu time spent up to now is     6981.6 secs

     Computing kpt #:   128  of   520
     total cpu time spent up to now is     7161.4 secs

     Computing kpt #:   129  of   520
     total cpu time spent up to now is     7308.1 secs

     Computing kpt #:   130  of   520
     total cpu time spent up to now is     7453.7 secs

     Computing kpt #:   131  of   520
     total cpu time spent up to now is     7611.6 secs

     Computing kpt #:   132  of   520
     total cpu time spent up to now is     7777.3 secs

     Computing kpt #:   133  of   520
     total cpu time spent up to now is     7961.0 secs

     Computing kpt #:   134  of   520
     total cpu time spent up to now is     8154.1 secs

     Computing kpt #:   135  of   520
     total cpu time spent up to now is     8334.3 secs

     Computing kpt #:   136  of   520
     c_bands:  1 eigenvalues not converged
     total cpu time spent up to now is     8521.7 secs

     Computing kpt #:   137  of   520
     total cpu time spent up to now is     8669.7 secs

     Computing kpt #:   138  of   520
     total cpu time spent up to now is     8817.5 secs

     Computing kpt #:   139  of   520
     total cpu time spent up to now is     8952.7 secs

     Computing kpt #:   140  of   520
     total cpu time spent up to now is     9101.3 secs

     Computing kpt #:   141  of   520
     total cpu time spent up to now is     9248.4 secs

     Computing kpt #:   142  of   520
     total cpu time spent up to now is     9412.4 secs

     Computing kpt #:   143  of   520
     c_bands:  1 eigenvalues not converged
     total cpu time spent up to now is     9585.6 secs

     Computing kpt #:   144  of   520
     total cpu time spent up to now is     9603.9 secs

     Computing kpt #:   145  of   520
     total cpu time spent up to now is     9622.1 secs

     Computing kpt #:   146  of   520
     total cpu time spent up to now is     9640.2 secs

     Computing kpt #:   147  of   520
     total cpu time spent up to now is     9659.0 secs

     Computing kpt #:   148  of   520
     total cpu time spent up to now is     9677.0 secs

     Computing kpt #:   149  of   520
     total cpu time spent up to now is     9694.5 secs

     Computing kpt #:   150  of   520
     total cpu time spent up to now is     9713.5 secs

     Computing kpt #:   151  of   520
     total cpu time spent up to now is     9732.6 secs

     Computing kpt #:   152  of   520
     total cpu time spent up to now is     9751.7 secs

     Computing kpt #:   153  of   520
     total cpu time spent up to now is     9793.3 secs

     Computing kpt #:   154  of   520
     total cpu time spent up to now is     9943.7 secs

     Computing kpt #:   155  of   520
     total cpu time spent up to now is    10109.3 secs

     Computing kpt #:   156  of   520
     total cpu time spent up to now is    10275.1 secs

     Computing kpt #:   157  of   520
     total cpu time spent up to now is    10414.4 secs

     Computing kpt #:   158  of   520
     total cpu time spent up to now is    10565.6 secs

     Computing kpt #:   159  of   520
     total cpu time spent up to now is    10708.7 secs

     Computing kpt #:   160  of   520
     total cpu time spent up to now is    10844.0 secs

     Computing kpt #:   161  of   520
     total cpu time spent up to now is    10993.1 secs

     Computing kpt #:   162  of   520
     total cpu time spent up to now is    11131.4 secs

     Computing kpt #:   163  of   520
     total cpu time spent up to now is    11278.4 secs

     Computing kpt #:   164  of   520
     total cpu time spent up to now is    11442.4 secs

     Computing kpt #:   165  of   520
     total cpu time spent up to now is    11612.7 secs

     Computing kpt #:   166  of   520
     total cpu time spent up to now is    11746.9 secs

     Computing kpt #:   167  of   520
     total cpu time spent up to now is    11897.0 secs

     Computing kpt #:   168  of   520
     total cpu time spent up to now is    12041.5 secs

     Computing kpt #:   169  of   520
     total cpu time spent up to now is    12177.1 secs

     Computing kpt #:   170  of   520
     total cpu time spent up to now is    12341.3 secs

     Computing kpt #:   171  of   520
     total cpu time spent up to now is    12505.0 secs

     Computing kpt #:   172  of   520
     c_bands:  1 eigenvalues not converged
     total cpu time spent up to now is    12689.1 secs

     Computing kpt #:   173  of   520
     total cpu time spent up to now is    12878.6 secs

     Computing kpt #:   174  of   520
     total cpu time spent up to now is    13051.3 secs

     Computing kpt #:   175  of   520
     total cpu time spent up to now is    13246.1 secs

     Computing kpt #:   176  of   520
     total cpu time spent up to now is    13402.5 secs

     Computing kpt #:   177  of   520
     total cpu time spent up to now is    13544.1 secs

     Computing kpt #:   178  of   520
     total cpu time spent up to now is    13688.1 secs

     Computing kpt #:   179  of   520
     total cpu time spent up to now is    13849.6 secs

     Computing kpt #:   180  of   520
     total cpu time spent up to now is    14031.7 secs

     Computing kpt #:   181  of   520
     total cpu time spent up to now is    14208.2 secs

     Computing kpt #:   182  of   520
     total cpu time spent up to now is    14378.2 secs

     Computing kpt #:   183  of   520
     total cpu time spent up to now is    14480.7 secs

     Computing kpt #:   184  of   520
     total cpu time spent up to now is    14501.7 secs

     Computing kpt #:   185  of   520
     total cpu time spent up to now is    14521.4 secs

     Computing kpt #:   186  of   520
     total cpu time spent up to now is    14539.6 secs

     Computing kpt #:   187  of   520
     total cpu time spent up to now is    14557.8 secs

     Computing kpt #:   188  of   520
     total cpu time spent up to now is    14732.0 secs

     Computing kpt #:   189  of   520
     total cpu time spent up to now is    14903.2 secs

     Computing kpt #:   190  of   520
     c_bands:  1 eigenvalues not converged
     total cpu time spent up to now is    14948.6 secs

     Computing kpt #:   191  of   520
     total cpu time spent up to now is    14970.8 secs

     Computing kpt #:   192  of   520
     total cpu time spent up to now is    14992.5 secs

     Computing kpt #:   193  of   520
     total cpu time spent up to now is    15011.9 secs

     Computing kpt #:   194  of   520
     total cpu time spent up to now is    15029.3 secs

     Computing kpt #:   195  of   520
     total cpu time spent up to now is    15048.9 secs

     Computing kpt #:   196  of   520
     total cpu time spent up to now is    15072.7 secs

     Computing kpt #:   197  of   520
     total cpu time spent up to now is    15096.8 secs

     Computing kpt #:   198  of   520
     total cpu time spent up to now is    15119.5 secs

     Computing kpt #:   199  of   520
     total cpu time spent up to now is    15141.7 secs

     Computing kpt #:   200  of   520
     total cpu time spent up to now is    15165.3 secs

     Computing kpt #:   201  of   520
     total cpu time spent up to now is    15187.5 secs

     Computing kpt #:   202  of   520
     total cpu time spent up to now is    15205.8 secs

     Computing kpt #:   203  of   520
     total cpu time spent up to now is    15224.3 secs

     Computing kpt #:   204  of   520
     total cpu time spent up to now is    15243.9 secs

     Computing kpt #:   205  of   520
     total cpu time spent up to now is    15265.2 secs

     Computing kpt #:   206  of   520
     total cpu time spent up to now is    15288.6 secs

     Computing kpt #:   207  of   520
     total cpu time spent up to now is    15312.1 secs

     Computing kpt #:   208  of   520
     total cpu time spent up to now is    15334.3 secs

     Computing kpt #:   209  of   520
     total cpu time spent up to now is    15355.5 secs

     Computing kpt #:   210  of   520
     total cpu time spent up to now is    15374.9 secs

     Computing kpt #:   211  of   520
     total cpu time spent up to now is    15392.6 secs

     Computing kpt #:   212  of   520
     total cpu time spent up to now is    15448.9 secs

     Computing kpt #:   213  of   520
     total cpu time spent up to now is    15599.0 secs

     Computing kpt #:   214  of   520
     total cpu time spent up to now is    15748.1 secs

     Computing kpt #:   215  of   520
     total cpu time spent up to now is    15922.6 secs

     Computing kpt #:   216  of   520
     total cpu time spent up to now is    16087.0 secs

     Computing kpt #:   217  of   520
     total cpu time spent up to now is    16232.6 secs

     Computing kpt #:   218  of   520
     total cpu time spent up to now is    16386.5 secs

     Computing kpt #:   219  of   520
     total cpu time spent up to now is    16534.6 secs

     Computing kpt #:   220  of   520
     total cpu time spent up to now is    16681.5 secs

     Computing kpt #:   221  of   520
     total cpu time spent up to now is    16790.4 secs

     Computing kpt #:   222  of   520
     total cpu time spent up to now is    16807.6 secs

     Computing kpt #:   223  of   520
     total cpu time spent up to now is    16827.1 secs

     Computing kpt #:   224  of   520
     total cpu time spent up to now is    16846.6 secs

     Computing kpt #:   225  of   520
     total cpu time spent up to now is    16865.9 secs

     Computing kpt #:   226  of   520
     total cpu time spent up to now is    16883.3 secs

     Computing kpt #:   227  of   520
     total cpu time spent up to now is    16901.8 secs

     Computing kpt #:   228  of   520
     total cpu time spent up to now is    16921.4 secs

     Computing kpt #:   229  of   520
     total cpu time spent up to now is    16940.9 secs

     Computing kpt #:   230  of   520
     total cpu time spent up to now is    16959.1 secs

     Computing kpt #:   231  of   520
     total cpu time spent up to now is    16977.3 secs

     Computing kpt #:   232  of   520
     total cpu time spent up to now is    16996.6 secs

     Computing kpt #:   233  of   520
     total cpu time spent up to now is    17015.1 secs

     Computing kpt #:   234  of   520
     total cpu time spent up to now is    17036.2 secs

     Computing kpt #:   235  of   520
     c_bands:  1 eigenvalues not converged
     total cpu time spent up to now is    17059.9 secs

     Computing kpt #:   236  of   520
     total cpu time spent up to now is    17078.3 secs

     Computing kpt #:   237  of   520
     total cpu time spent up to now is    17098.1 secs

     Computing kpt #:   238  of   520
     total cpu time spent up to now is    17116.7 secs

     Computing kpt #:   239  of   520
     total cpu time spent up to now is    17134.8 secs

     Computing kpt #:   240  of   520
     total cpu time spent up to now is    17154.5 secs

     Computing kpt #:   241  of   520
     total cpu time spent up to now is    17174.1 secs

     Computing kpt #:   242  of   520
     c_bands:  1 eigenvalues not converged
     total cpu time spent up to now is    17197.7 secs

     Computing kpt #:   243  of   520
     total cpu time spent up to now is    17221.5 secs

     Computing kpt #:   244  of   520
     total cpu time spent up to now is    17241.3 secs

     Computing kpt #:   245  of   520
     total cpu time spent up to now is    17265.0 secs

     Computing kpt #:   246  of   520
     total cpu time spent up to now is    17283.0 secs

     Computing kpt #:   247  of   520
     total cpu time spent up to now is    17301.7 secs

     Computing kpt #:   248  of   520
     total cpu time spent up to now is    17319.8 secs

     Computing kpt #:   249  of   520
     total cpu time spent up to now is    17341.7 secs

     Computing kpt #:   250  of   520
     total cpu time spent up to now is    17365.3 secs

     Computing kpt #:   251  of   520
     total cpu time spent up to now is    17387.5 secs

     Computing kpt #:   252  of   520
     total cpu time spent up to now is    17409.6 secs

     Computing kpt #:   253  of   520
     total cpu time spent up to now is    17433.3 secs

     Computing kpt #:   254  of   520
     total cpu time spent up to now is    17457.2 secs

     Computing kpt #:   255  of   520
     total cpu time spent up to now is    17475.3 secs

     Computing kpt #:   256  of   520
     total cpu time spent up to now is    17493.4 secs

     Computing kpt #:   257  of   520
     total cpu time spent up to now is    17511.6 secs

     Computing kpt #:   258  of   520
     total cpu time spent up to now is    17532.5 secs

     Computing kpt #:   259  of   520
     total cpu time spent up to now is    17554.7 secs

     Computing kpt #:   260  of   520
     total cpu time spent up to now is    17577.1 secs

     Computing kpt #:   261  of   520
     total cpu time spent up to now is    17600.0 secs

     Computing kpt #:   262  of   520
     c_bands:  1 eigenvalues not converged
     total cpu time spent up to now is    17624.2 secs

     Computing kpt #:   263  of   520
     c_bands:  1 eigenvalues not converged
     total cpu time spent up to now is    17647.2 secs

     Computing kpt #:   264  of   520
     total cpu time spent up to now is    17666.3 secs

     Computing kpt #:   265  of   520
     total cpu time spent up to now is    17683.8 secs

     Computing kpt #:   266  of   520
     c_bands:  1 eigenvalues not converged
     total cpu time spent up to now is    17707.8 secs

     Computing kpt #:   267  of   520
     total cpu time spent up to now is    17731.7 secs

     Computing kpt #:   268  of   520
     total cpu time spent up to now is    17754.2 secs

     Computing kpt #:   269  of   520
     total cpu time spent up to now is    17775.5 secs

     Computing kpt #:   270  of   520
     total cpu time spent up to now is    17795.9 secs

     Computing kpt #:   271  of   520
     total cpu time spent up to now is    17817.2 secs

     Computing kpt #:   272  of   520
     total cpu time spent up to now is    17838.5 secs

     Computing kpt #:   273  of   520
     total cpu time spent up to now is    17859.5 secs

     Computing kpt #:   274  of   520
     c_bands:  1 eigenvalues not converged
     total cpu time spent up to now is    17882.7 secs

     Computing kpt #:   275  of   520
     total cpu time spent up to now is    17905.4 secs

     Computing kpt #:   276  of   520
     total cpu time spent up to now is    17925.9 secs

     Computing kpt #:   277  of   520
     total cpu time spent up to now is    17946.9 secs

     Computing kpt #:   278  of   520
     total cpu time spent up to now is    17966.4 secs

     Computing kpt #:   279  of   520
     total cpu time spent up to now is    17985.2 secs

     Computing kpt #:   280  of   520
     total cpu time spent up to now is    18004.0 secs

     Computing kpt #:   281  of   520
     total cpu time spent up to now is    18025.5 secs

     Computing kpt #:   282  of   520
     total cpu time spent up to now is    18043.7 secs

     Computing kpt #:   283  of   520
     total cpu time spent up to now is    18064.8 secs

     Computing kpt #:   284  of   520
     total cpu time spent up to now is    18085.4 secs

     Computing kpt #:   285  of   520
     total cpu time spent up to now is    18103.4 secs

     Computing kpt #:   286  of   520
     total cpu time spent up to now is    18121.5 secs

     Computing kpt #:   287  of   520
     total cpu time spent up to now is    18140.3 secs

     Computing kpt #:   288  of   520
     total cpu time spent up to now is    18158.6 secs

     Computing kpt #:   289  of   520
     total cpu time spent up to now is    18178.0 secs

     Computing kpt #:   290  of   520
     total cpu time spent up to now is    18195.6 secs

     Computing kpt #:   291  of   520
     total cpu time spent up to now is    18215.0 secs

     Computing kpt #:   292  of   520
     total cpu time spent up to now is    18234.6 secs

     Computing kpt #:   293  of   520
     total cpu time spent up to now is    18253.0 secs

     Computing kpt #:   294  of   520
     total cpu time spent up to now is    18271.7 secs

     Computing kpt #:   295  of   520
     total cpu time spent up to now is    18295.9 secs

     Computing kpt #:   296  of   520
     total cpu time spent up to now is    18318.6 secs

     Computing kpt #:   297  of   520
     total cpu time spent up to now is    18342.2 secs

     Computing kpt #:   298  of   520
     total cpu time spent up to now is    18363.5 secs

     Computing kpt #:   299  of   520
     total cpu time spent up to now is    18383.1 secs

     Computing kpt #:   300  of   520
     total cpu time spent up to now is    18404.7 secs

     Computing kpt #:   301  of   520
     total cpu time spent up to now is    18424.6 secs

     Computing kpt #:   302  of   520
     total cpu time spent up to now is    18445.9 secs

[...]
     1.0000   1.0000   1.0000   1.0000   1.0000   1.0000   1.0000   1.0000
     1.0000   1.0000   1.0000   1.0000   1.0000   1.0000   1.0000   1.0000
     1.0000   1.0000   1.0000   1.0000   1.0000   1.0000   1.0000   1.0000
     1.0000   1.0000   1.0000   1.0000   1.0000   1.0000   1.0000   1.0000
     1.0000   1.0000   1.0000   1.0000   1.0000   1.0000   1.0000   1.0000
     1.0000   1.0000   1.0000   1.0000   1.0000   1.0000   1.0000   1.0000
     1.0000   1.0000   1.0000   1.0000   1.0000   1.0000   1.0000   1.0003
     1.0021   1.0030   1.0212   1.0830   0.7519   0.0000   0.0000   0.0000
     0.0000   0.0000   0.0000   0.0000   0.0000   0.0000   0.0000   0.0000
     0.0000   0.0000   0.0000

          k =-5.5197 3.1944 0.3750 ( 23451 PWs)   bands (ev):

   -73.9741 -69.3528 -42.7280 -42.7229 -42.7216 -38.1941 -38.1899 -38.1751
   -15.5741 -15.5741 -15.5711 -15.5710 -15.5627 -15.5627 -15.5610 -15.5609
   -15.5606 -15.5606 -15.5575 -15.5575 -15.5560 -15.5559 -15.5493 -15.5493
   -15.5439 -15.5439 -15.5427 -15.5427  -5.4648  -5.4536  -5.2610  -5.2492
    -3.7132  -3.6245  -3.1964  -3.1222  -1.5316  -1.4661  -0.9131  -0.8720
     3.6556   4.0964   4.1446   4.2720   4.6076   4.6466   4.8088   4.8166
     5.0901   5.1557   5.3436   5.5483   5.6257   5.6494   5.6684   5.7687
     5.9175   6.0690   6.2083   6.2533   6.4640   6.8395   6.8482   6.8978
     6.9146   7.0882   7.2671   7.4890   7.5410   8.5536   8.6181   8.7379
     8.7823   8.8983   8.9847   9.0690   9.1836   9.2301   9.3398   9.3461
     9.4379   9.6307   9.7045

     occupation numbers 
     1.0000   1.0000   1.0000   1.0000   1.0000   1.0000   1.0000   1.0000
     1.0000   1.0000   1.0000   1.0000   1.0000   1.0000   1.0000   1.0000
     1.0000   1.0000   1.0000   1.0000   1.0000   1.0000   1.0000   1.0000
     1.0000   1.0000   1.0000   1.0000   1.0000   1.0000   1.0000   1.0000
     1.0000   1.0000   1.0000   1.0000   1.0000   1.0000   1.0000   1.0000
     1.0000   1.0000   1.0000   1.0000   1.0000   1.0000   1.0000   1.0000
     1.0000   1.0000   1.0000   1.0000   1.0000   1.0000   1.0000   1.0000
     1.0000   1.0000   1.0000   1.0000   1.0000   1.0017   1.0020   1.0042
     1.0053   1.0369   1.0832   0.8195   0.6851   0.0000   0.0000   0.0000
     0.0000   0.0000   0.0000   0.0000   0.0000   0.0000   0.0000   0.0000
     0.0000   0.0000   0.0000

          k =-0.0397 6.3716-0.5000 ( 23440 PWs)   bands (ev):

   -73.9741 -69.3528 -42.7280 -42.7229 -42.7216 -38.1941 -38.1899 -38.1751
   -15.5742 -15.5741 -15.5710 -15.5709 -15.5635 -15.5634 -15.5604 -15.5604
   -15.5601 -15.5601 -15.5576 -15.5576 -15.5561 -15.5561 -15.5493 -15.5492
   -15.5442 -15.5442 -15.5425 -15.5424  -5.4641  -5.4544  -5.2590  -5.2511
    -3.7106  -3.6284  -3.1887  -3.1288  -1.5272  -1.4708  -0.9117  -0.8731
     3.6553   4.0974   4.1436   4.2723   4.6099   4.6427   4.8097   4.8167
     5.0850   5.1700   5.3421   5.5513   5.6171   5.6192   5.6765   5.7813
     5.9077   6.0617   6.2591   6.2686   6.4428   6.7711   6.8225   6.9145
     6.9695   7.0942   7.2630   7.4879   7.5447   8.5163   8.6588   8.7387
     8.7868   8.8998   8.9826   9.0761   9.1708   9.2156   9.3000   9.3524
     9.5104   9.6438   9.6516

     occupation numbers 
     1.0000   1.0000   1.0000   1.0000   1.0000   1.0000   1.0000   1.0000
     1.0000   1.0000   1.0000   1.0000   1.0000   1.0000   1.0000   1.0000
     1.0000   1.0000   1.0000   1.0000   1.0000   1.0000   1.0000   1.0000
     1.0000   1.0000   1.0000   1.0000   1.0000   1.0000   1.0000   1.0000
     1.0000   1.0000   1.0000   1.0000   1.0000   1.0000   1.0000   1.0000
     1.0000   1.0000   1.0000   1.0000   1.0000   1.0000   1.0000   1.0000
     1.0000   1.0000   1.0000   1.0000   1.0000   1.0000   1.0000   1.0000
     1.0000   1.0000   1.0000   1.0000   1.0000   1.0005   1.0013   1.0053
     1.0109   1.0388   1.0833   0.8221   0.6748   0.0000   0.0000   0.0000
     0.0000   0.0000   0.0000   0.0000   0.0000   0.0000   0.0000   0.0000
     0.0000   0.0000   0.0000

          k =-0.8225 5.9177-0.3750 ( 23448 PWs)   bands (ev):

   -73.9741 -69.3528 -42.7282 -42.7229 -42.7216 -38.1944 -38.1899 -38.1751
   -15.5762 -15.5762 -15.5695 -15.5694 -15.5661 -15.5661 -15.5587 -15.5587
   -15.5583 -15.5582 -15.5578 -15.5577 -15.5553 -15.5552 -15.5472 -15.5472
   -15.5449 -15.5448 -15.5413 -15.5412  -5.1964  -5.1879  -4.9988  -4.9936
    -3.5322  -3.4607  -3.0690  -3.0210  -1.6649  -1.6410  -1.2199  -1.2061
     3.4985   3.7673   3.8939   4.0739   4.2114   4.2787   4.3616   4.5947
     4.6391   4.7420   4.9451   4.9740   5.0506   5.1255   5.3299   5.5025
     5.5676   5.7724   5.9106   6.0343   6.2179   6.3599   6.4831   6.7754
     6.8510   6.8948   7.0099   7.2548   7.5191   8.6513   8.8143   8.8534
     8.8745   9.0446   9.0608   9.2607   9.3375   9.3599   9.5506   9.6258
     9.8441  10.0545  10.1982

     occupation numbers 
     1.0000   1.0000   1.0000   1.0000   1.0000   1.0000   1.0000   1.0000
     1.0000   1.0000   1.0000   1.0000   1.0000   1.0000   1.0000   1.0000
     1.0000   1.0000   1.0000   1.0000   1.0000   1.0000   1.0000   1.0000
     1.0000   1.0000   1.0000   1.0000   1.0000   1.0000   1.0000   1.0000
     1.0000   1.0000   1.0000   1.0000   1.0000   1.0000   1.0000   1.0000
     1.0000   1.0000   1.0000   1.0000   1.0000   1.0000   1.0000   1.0000
     1.0000   1.0000   1.0000   1.0000   1.0000   1.0000   1.0000   1.0000
     1.0000   1.0000   1.0000   1.0000   1.0000   1.0000   1.0000   1.0006
     1.0021   1.0040   1.0174   1.0832   0.7436   0.0000   0.0000   0.0000
     0.0000   0.0000   0.0000   0.0000   0.0000   0.0000   0.0000   0.0000
     0.0000   0.0000   0.0000

          k =-1.6054 5.4638-0.2500 ( 23500 PWs)   bands (ev):

   -73.9741 -69.3528 -42.7284 -42.7229 -42.7216 -38.1947 -38.1900 -38.1750
   -15.5796 -15.5796 -15.5696 -15.5696 -15.5685 -15.5685 -15.5594 -15.5594
   -15.5571 -15.5571 -15.5556 -15.5555 -15.5521 -15.5520 -15.5467 -15.5467
   -15.5436 -15.5435 -15.5385 -15.5384  -4.6908  -4.6811  -4.5182  -4.5074
    -3.2653  -3.1827  -2.9559  -2.8608  -2.0738  -1.9919  -1.8311  -1.7775
     3.1122   3.2198   3.3886   3.5824   3.6509   3.8116   4.0774   4.2046
     4.3559   4.4220   4.5469   4.6662   4.8030   4.8728   4.9443   5.0933
     5.1413   5.3220   5.4197   5.6759   5.9270   6.0065   6.1257   6.3165
     6.3959   6.6783   6.8110   7.2062   7.3961   8.6872   8.7306   8.8620
     9.0218   9.0956   9.1448   9.3099   9.3734   9.5480   9.6189   9.9077
     9.9704  10.2270  10.4452

     occupation numbers 
     1.0000   1.0000   1.0000   1.0000   1.0000   1.0000   1.0000   1.0000
     1.0000   1.0000   1.0000   1.0000   1.0000   1.0000   1.0000   1.0000
     1.0000   1.0000   1.0000   1.0000   1.0000   1.0000   1.0000   1.0000
     1.0000   1.0000   1.0000   1.0000   1.0000   1.0000   1.0000   1.0000
     1.0000   1.0000   1.0000   1.0000   1.0000   1.0000   1.0000   1.0000
     1.0000   1.0000   1.0000   1.0000   1.0000   1.0000   1.0000   1.0000
     1.0000   1.0000   1.0000   1.0000   1.0000   1.0000   1.0000   1.0000
     1.0000   1.0000   1.0000   1.0000   1.0000   1.0000   1.0000   1.0000
     1.0000   1.0001   1.0011   1.0753   0.9992   0.0000   0.0000   0.0000
     0.0000   0.0000   0.0000   0.0000   0.0000   0.0000   0.0000   0.0000
     0.0000   0.0000   0.0000

          k =-2.3882 5.0099-0.1250 ( 23545 PWs)   bands (ev):

   -73.9741 -69.3528 -42.7285 -42.7230 -42.7215 -38.1949 -38.1901 -38.1750
   -15.5823 -15.5822 -15.5722 -15.5722 -15.5684 -15.5683 -15.5606 -15.5604
   -15.5568 -15.5567 -15.5520 -15.5519 -15.5505 -15.5505 -15.5477 -15.5476
   -15.5403 -15.5403 -15.5369 -15.5369  -4.0574  -4.0438  -3.9535  -3.9356
    -3.1436  -3.0973  -2.9950  -2.9515  -2.5004  -2.4617  -2.3419  -2.3091
     2.7233   2.7617   3.0560   3.1609   3.4641   3.7163   3.8943   3.9308
     4.1827   4.2524   4.3478   4.4627   4.6001   4.7119   4.9107   4.9787
     5.0562   5.1144   5.1287   5.3971   5.4330   5.6901   6.0466   6.1485
     6.2519   6.3328   6.6100   7.1016   7.3258   8.6507   8.7548   8.8128
     8.8635   9.1214   9.1835   9.2190   9.2347   9.7066   9.7496   9.7905
    10.0852  10.1722  10.2382

     occupation numbers 
     1.0000   1.0000   1.0000   1.0000   1.0000   1.0000   1.0000   1.0000
     1.0000   1.0000   1.0000   1.0000   1.0000   1.0000   1.0000   1.0000
     1.0000   1.0000   1.0000   1.0000   1.0000   1.0000   1.0000   1.0000
     1.0000   1.0000   1.0000   1.0000   1.0000   1.0000   1.0000   1.0000
     1.0000   1.0000   1.0000   1.0000   1.0000   1.0000   1.0000   1.0000
     1.0000   1.0000   1.0000   1.0000   1.0000   1.0000   1.0000   1.0000
     1.0000   1.0000   1.0000   1.0000   1.0000   1.0000   1.0000   1.0000
     1.0000   1.0000   1.0000   1.0000   1.0000   1.0000   1.0000   1.0000
     1.0000   1.0000   1.0000   1.0411   1.0667   0.0000   0.0000   0.0000
     0.0000   0.0000   0.0000   0.0000   0.0000   0.0000   0.0000   0.0000
     0.0000   0.0000   0.0000

          k =-3.1711-1.8385 0.0000 ( 23494 PWs)   bands (ev):

   -73.9741 -69.3528 -42.7286 -42.7229 -42.7215 -38.1950 -38.1900 -38.1750
   -15.5841 -15.5840 -15.5741 -15.5740 -15.5670 -15.5669 -15.5620 -15.5620
   -15.5554 -15.5553 -15.5513 -15.5512 -15.5492 -15.5491 -15.5489 -15.5488
   -15.5394 -15.5394 -15.5356 -15.5356  -3.9712  -3.9616  -3.9277  -3.9169
    -3.2586  -3.1840  -3.1327  -3.0411  -2.4736  -2.4428  -2.2761  -2.2594
     2.5767   2.6081   2.9267   3.0200   3.5147   3.7751   4.0740   4.1971
     4.4855   4.5264   4.5846   4.6265   4.7245   4.7705   4.8175   4.9258
     4.9606   5.0231   5.1062   5.3970   5.5842   5.7847   5.8677   6.1747
     6.1966   6.3646   6.7250   7.0423   7.3249   8.4028   8.4738   8.8178
     8.9313   8.9590   9.0693   9.1333   9.1888   9.3020   9.3305   9.5765
    10.1288  10.2113  10.2583

     occupation numbers 
     1.0000   1.0000   1.0000   1.0000   1.0000   1.0000   1.0000   1.0000
     1.0000   1.0000   1.0000   1.0000   1.0000   1.0000   1.0000   1.0000
     1.0000   1.0000   1.0000   1.0000   1.0000   1.0000   1.0000   1.0000
     1.0000   1.0000   1.0000   1.0000   1.0000   1.0000   1.0000   1.0000
     1.0000   1.0000   1.0000   1.0000   1.0000   1.0000   1.0000   1.0000
     1.0000   1.0000   1.0000   1.0000   1.0000   1.0000   1.0000   1.0000
     1.0000   1.0000   1.0000   1.0000   1.0000   1.0000   1.0000   1.0000
     1.0000   1.0000   1.0000   1.0000   1.0000   1.0000   1.0000   1.0000
     1.0000   1.0000   1.0002   1.0243   1.0673   0.0000   0.0000   0.0000
     0.0000   0.0000   0.0000   0.0000   0.0000   0.0000   0.0000   0.0000
     0.0000   0.0000   0.0000

          k =-3.9540-2.2924 0.1250 ( 23498 PWs)   bands (ev):

   -73.9741 -69.3528 -42.7285 -42.7229 -42.7215 -38.1948 -38.1900 -38.1750
   -15.5822 -15.5822 -15.5722 -15.5722 -15.5672 -15.5672 -15.5614 -15.5613
   -15.5557 -15.5557 -15.5528 -15.5528 -15.5507 -15.5507 -15.5486 -15.5485
   -15.5409 -15.5408 -15.5374 -15.5373  -4.4691  -4.4533  -4.3194  -4.2968
    -3.2186  -3.0919  -3.0148  -2.8725  -2.2349  -2.1996  -1.9955  -1.9818
     2.8305   2.8609   3.1467   3.3269   3.5053   3.7291   4.2459   4.4590
     4.4932   4.6026   4.6129   4.7389   4.7426   4.8300   4.9352   5.0050
     5.1291   5.1758   5.3567   5.4785   5.5929   5.9827   6.0264   6.2409
     6.3215   6.5079   6.7222   7.1027   7.3605   8.4944   8.5916   8.8267
     8.8899   8.9733   9.0712   9.1509   9.3198   9.4589   9.5050   9.7696
     9.8791  10.0830  10.3463

     occupation numbers 
     1.0000   1.0000   1.0000   1.0000   1.0000   1.0000   1.0000   1.0000
     1.0000   1.0000   1.0000   1.0000   1.0000   1.0000   1.0000   1.0000
     1.0000   1.0000   1.0000   1.0000   1.0000   1.0000   1.0000   1.0000
     1.0000   1.0000   1.0000   1.0000   1.0000   1.0000   1.0000   1.0000
     1.0000   1.0000   1.0000   1.0000   1.0000   1.0000   1.0000   1.0000
     1.0000   1.0000   1.0000   1.0000   1.0000   1.0000   1.0000   1.0000
     1.0000   1.0000   1.0000   1.0000   1.0000   1.0000   1.0000   1.0000
     1.0000   1.0000   1.0000   1.0000   1.0000   1.0000   1.0000   1.0000
     1.0000   1.0000   1.0002   1.0415   1.0407   0.0000   0.0000   0.0000
     0.0000   0.0000   0.0000   0.0000   0.0000   0.0000   0.0000   0.0000
     0.0000   0.0000   0.0000

          k =-4.7368-2.7463 0.2500 ( 23474 PWs)   bands (ev):

   -73.9741 -69.3528 -42.7283 -42.7229 -42.7216 -38.1945 -38.1899 -38.1751
   -15.5779 -15.5778 -15.5686 -15.5685 -15.5680 -15.5678 -15.5597 -15.5596
   -15.5572 -15.5571 -15.5565 -15.5564 -15.5544 -15.5543 -15.5475 -15.5473
   -15.5439 -15.5438 -15.5409 -15.5408  -5.0684  -5.0565  -4.8790  -4.8645
    -3.4660  -3.3692  -3.0601  -2.9512  -1.7981  -1.6836  -1.4129  -1.3319
     3.3029   3.5702   3.6492   3.7779   4.1357   4.2512   4.2976   4.4885
     4.5935   4.7433   4.9716   5.0133   5.0629   5.1013   5.1558   5.3556
     5.4318   5.4523   5.8425   6.0108   6.1587   6.1895   6.3528   6.4665
     6.6512   6.6677   7.0777   7.2814   7.4336   8.5748   8.6438   8.8889
     8.9437   9.0398   9.0648   9.1769   9.4358   9.4476   9.6297   9.7253
     9.8632  10.0636  10.0882

     occupation numbers 
     1.0000   1.0000   1.0000   1.0000   1.0000   1.0000   1.0000   1.0000
     1.0000   1.0000   1.0000   1.0000   1.0000   1.0000   1.0000   1.0000
     1.0000   1.0000   1.0000   1.0000   1.0000   1.0000   1.0000   1.0000
     1.0000   1.0000   1.0000   1.0000   1.0000   1.0000   1.0000   1.0000
     1.0000   1.0000   1.0000   1.0000   1.0000   1.0000   1.0000   1.0000
     1.0000   1.0000   1.0000   1.0000   1.0000   1.0000   1.0000   1.0000
     1.0000   1.0000   1.0000   1.0000   1.0000   1.0000   1.0000   1.0000
     1.0000   1.0000   1.0000   1.0000   1.0000   1.0000   1.0000   1.0000
     1.0001   1.0001   1.0338   1.0819   0.9384   0.0000   0.0000   0.0000
     0.0000   0.0000   0.0000   0.0000   0.0000   0.0000   0.0000   0.0000
     0.0000   0.0000   0.0000

          k =-5.5197-3.2002 0.3750 ( 23440 PWs)   bands (ev):

   -73.9741 -69.3528 -42.7281 -42.7228 -42.7216 -38.1942 -38.1898 -38.1751
   -15.5739 -15.5739 -15.5712 -15.5711 -15.5640 -15.5639 -15.5602 -15.5602
   -15.5597 -15.5596 -15.5575 -15.5574 -15.5565 -15.5565 -15.5492 -15.5492
   -15.5439 -15.5438 -15.5429 -15.5429  -5.4641  -5.4544  -5.2590  -5.2511
    -3.7106  -3.6284  -3.1887  -3.1288  -1.5273  -1.4708  -0.9117  -0.8731
     3.6554   4.0975   4.1435   4.2726   4.6096   4.6428   4.8082   4.8179
     5.0857   5.1703   5.3422   5.5509   5.6174   5.6190   5.6766   5.7804
     5.9074   6.0626   6.2582   6.2685   6.4430   6.7716   6.8221   6.9141
     6.9699   7.0943   7.2632   7.4881   7.5447   8.5161   8.6595   8.7376
     8.7888   8.8987   8.9822   9.0765   9.1709   9.2152   9.2996   9.3524
     9.5107   9.6437   9.6519

     occupation numbers 
     1.0000   1.0000   1.0000   1.0000   1.0000   1.0000   1.0000   1.0000
     1.0000   1.0000   1.0000   1.0000   1.0000   1.0000   1.0000   1.0000
     1.0000   1.0000   1.0000   1.0000   1.0000   1.0000   1.0000   1.0000
     1.0000   1.0000   1.0000   1.0000   1.0000   1.0000   1.0000   1.0000
     1.0000   1.0000   1.0000   1.0000   1.0000   1.0000   1.0000   1.0000
     1.0000   1.0000   1.0000   1.0000   1.0000   1.0000   1.0000   1.0000
     1.0000   1.0000   1.0000   1.0000   1.0000   1.0000   1.0000   1.0000
     1.0000   1.0000   1.0000   1.0000   1.0000   1.0005   1.0013   1.0053
     1.0109   1.0388   1.0833   0.8218   0.6750   0.0000   0.0000   0.0000
     0.0000   0.0000   0.0000   0.0000   0.0000   0.0000   0.0000   0.0000
     0.0000   0.0000   0.0000

          k =-0.0397-0.0230-0.5000 ( 23456 PWs)   bands (ev):

   -73.9741 -69.3528 -42.7280 -42.7228 -42.7216 -38.1941 -38.1898 -38.1751
   -15.5727 -15.5727 -15.5725 -15.5725 -15.5625 -15.5625 -15.5617 -15.5615
   -15.5611 -15.5610 -15.5572 -15.5570 -15.5566 -15.5565 -15.5506 -15.5504
   -15.5437 -15.5435 -15.5432 -15.5430  -5.6003  -5.5911  -5.3904  -5.3853
    -3.8055  -3.7244  -3.2481  -3.2019  -1.4586  -1.4225  -0.7372  -0.7280
     3.7029   4.1952   4.2508   4.2513   4.8531   4.8552   5.0854   5.2847
     5.4237   5.8341   5.8355   5.9479   5.9482   5.9954   5.9967   6.1692
     6.1696   6.3001   6.3009   6.3896   6.4288   6.9315   6.9323   7.0077
     7.0085   7.4866   7.4868   7.5960   7.6107   8.4043   8.5095   8.5572
     8.5583   8.8227   8.8264   8.9110   8.9919   8.9928   9.0356   9.1072
     9.1077   9.1163   9.4018

     occupation numbers 
     1.0000   1.0000   1.0000   1.0000   1.0000   1.0000   1.0000   1.0000
     1.0000   1.0000   1.0000   1.0000   1.0000   1.0000   1.0000   1.0000
     1.0000   1.0000   1.0000   1.0000   1.0000   1.0000   1.0000   1.0000
     1.0000   1.0000   1.0000   1.0000   1.0000   1.0000   1.0000   1.0000
     1.0000   1.0000   1.0000   1.0000   1.0000   1.0000   1.0000   1.0000
     1.0000   1.0000   1.0000   1.0000   1.0000   1.0000   1.0000   1.0000
     1.0000   1.0000   1.0000   1.0000   1.0000   1.0000   1.0000   1.0000
     1.0000   1.0000   1.0000   1.0000   1.0000   1.0067   1.0068   1.0169
     1.0171   0.8253   0.8249   0.5334   0.4933   0.0000   0.0000   0.0000
     0.0000   0.0000   0.0000   0.0000   0.0000   0.0000   0.0000   0.0000
     0.0000   0.0000   0.0000

     the Fermi energy is     7.6461 ev
     (compare with:     7.6646 eV, computed in scf)

     Writing all to output data dir ./tmp/MnBi2Te4.save/
 
     init_run     :      0.79s CPU      1.04s WALL (       1 calls)
     electrons    :  28981.81s CPU  29969.52s WALL (       1 calls)

     Called by init_run:
     wfcinit      :      0.00s CPU      0.00s WALL (       1 calls)
     wfcinit:atom :      0.10s CPU      0.12s WALL (     520 calls)
     wfcinit:wfcr :    755.76s CPU    779.43s WALL (     520 calls)
     potinit      :      0.35s CPU      0.48s WALL (       1 calls)
     hinit0       :      0.31s CPU      0.34s WALL (       1 calls)

     Called by electrons:
     c_bands      :  28981.71s CPU  29969.30s WALL (       1 calls)
     v_of_rho     :      0.21s CPU      0.29s WALL (       1 calls)
     v_h          :      0.01s CPU      0.01s WALL (       1 calls)
     v_xc         :      0.21s CPU      0.28s WALL (       1 calls)
     newd         :      0.04s CPU      0.07s WALL (       1 calls)
     PAW_pot      :      0.12s CPU      0.16s WALL (       1 calls)

     Called by c_bands:
     init_us_2    :      0.17s CPU      0.19s WALL (     520 calls)
     init_us_2:cp :      0.17s CPU      0.18s WALL (     520 calls)
     cegterg      :  28218.11s CPU  29181.01s WALL (    2162 calls)

     Called by sum_band:

     Called by *egterg:
     cdiaghg      :    367.72s CPU    375.82s WALL (   38659 calls)
     cegterg:over :    733.71s CPU    814.63s WALL (   38139 calls)
     cegterg:upda :     26.35s CPU     26.60s WALL (   38139 calls)
     cegterg:last :     68.98s CPU     70.11s WALL (   20364 calls)
     h_psi        :  27404.35s CPU  28283.95s WALL (   40821 calls)
     s_psi        :     44.08s CPU     44.59s WALL (   40821 calls)
     g_psi        :      1.52s CPU      1.53s WALL (   38139 calls)

     Called by h_psi:
     h_psi:calbec :    514.35s CPU    583.51s WALL (   40821 calls)
     vloc_psi     :  26835.10s CPU  27644.61s WALL (   40821 calls)
     add_vuspsi   :     53.33s CPU     54.28s WALL (   40821 calls)

     General routines
     calbec       :    514.15s CPU    583.39s WALL (   40821 calls)
     fft          :      0.08s CPU      0.12s WALL (      21 calls)
     fftw         :  26132.10s CPU  26935.96s WALL ( 3380436 calls)
     davcio       :      0.17s CPU      0.81s WALL (    1040 calls)
 
     Parallel routines

     PAW routines
     PAW_pot      :      0.12s CPU      0.16s WALL (       1 calls)
 
     PWSCF        :      8h 3m CPU      8h20m WALL

 
   This run was terminated on:  22:41:41  13Jun2025            

=------------------------------------------------------------------------------=
   JOB DONE.
=------------------------------------------------------------------------------=
