
     Program PWSCF v.7.2 starts on 11Nov2025 at 17:31:12 

     This program is part of the open-source Quantum ESPRESSO suite
     for quantum simulation of materials; please cite
         "P. Giannozzi et al., J. Phys.:Condens. Matter 21 395502 (2009);
         "P. Giannozzi et al., J. Phys.:Condens. Matter 29 465901 (2017);
         "P. Giannozzi et al., J. Chem. Phys. 152 154105 (2020);
          URL http://www.quantum-espresso.org", 
     in publications or presentations arising from this work. More details at
     http://www.quantum-espresso.org/quote

     Parallel version (MPI), running on    48 processors

     MPI processes distributed on     1 nodes
     239796 MiB available memory on the printing compute node when the environment starts
 
     Reading input from MnBi2Te4.scf.in

     Current dimensions of program PWSCF are:
     Max number of different atomic species (ntypx) = 10
     Max number of k-points (npk) =  40000
     Max angular momentum in pseudopotentials (lmaxx) =  4
     file Mn.rel-pbe-spn-kjpaw_psl.0.3.1.UPF: wavefunction(s)  3P 3P 3D renormalized
     file Mn.rel-pbe-spn-kjpaw_psl.0.3.1.UPF: wavefunction(s)  3P 3P 3D renormalized
     file Bi.rel-pbe-dn-kjpaw_psl.1.0.0.UPF: wavefunction(s)  6P 6P 5D 5D renormalized
     file Te.rel-pbe-n-kjpaw_psl.1.0.0.UPF: wavefunction(s)  5S 5P 5P renormalized

     Fixed quantization axis for GGA:     0.000000    0.000000    1.000000
     Message from routine setup:
     using ibrav=0 with symmetry is DISCOURAGED, use correct ibrav instead
 
     R & G space division:  proc/nbgrp/npool/nimage =      48
     Subspace diagonalization in iterative solution of the eigenvalue problem:
     one sub-group per band group will be used
     scalapack distributed-memory algorithm (size of sub-group:  2*  2 procs)

 
     Parallelization info
     --------------------
     sticks:   dense  smooth     PW     G-vecs:    dense   smooth      PW
     Min         350     168     49                11768     3915     621
     Max         351     169     50                11770     3917     622
     Sum       16819    8079   2353               564899   187971   29827
 
     Using Slab Decomposition
 


     bravais-lattice index     =            0
     lattice parameter (alat)  =      51.7756  a.u.
     unit-cell volume          =    2994.5793 (a.u.)^3
     number of atoms/cell      =           14
     number of atomic types    =            4
     number of electrons       =       138.00
     number of Kohn-Sham states=          166
     kinetic-energy cutoff     =      60.0000  Ry
     charge density cutoff     =     500.0000  Ry
     scf convergence threshold =      1.0E-06
     mixing beta               =       0.2000
     number of iterations used =            4  local-TF  mixing
     Exchange-correlation= SLA  PW   PBX  PBC
                           (   1   4   3   4   0   0   0)
     Noncollinear calculation with spin-orbit


     celldm(1)=  51.775642  celldm(2)=   0.000000  celldm(3)=   0.000000
     celldm(4)=   0.000000  celldm(5)=   0.000000  celldm(6)=   0.000000

     crystal axes: (cart. coord. in units of alat)
               a(1) = (   0.079085  -0.045660   0.995822 )  
               a(2) = (   0.000000   0.091319   0.995822 )  
               a(3) = (  -0.079085  -0.045660   0.995822 )  

     reciprocal axes: (cart. coord. in units 2 pi/alat)
               b(1) = (  6.322314 -3.650196  0.334731 )  
               b(2) = (  0.000000  7.300392  0.334734 )  
               b(3) = ( -6.322314 -3.650196  0.334731 )  


     PseudoPot. # 1 for Mn read from file:
     ./Mn.rel-pbe-spn-kjpaw_psl.0.3.1.UPF
     MD5 check sum: dfba1c7561257014502ac20495784078
     Pseudo is Projector augmented-wave + core cor, Zval = 15.0
     Generated using &quot;atomic&quot; code by A. Dal Corso  v.6.2.2
     Shape of augmentation charge: PSQ
     Using radial grid of 1187 points, 10 beta functions with: 
                l(1) =   0
                l(2) =   0
                l(3) =   1
                l(4) =   1
                l(5) =   1
                l(6) =   1
                l(7) =   2
                l(8) =   2
                l(9) =   2
               l(10) =   2
     Q(r) pseudized with 0 coefficients 


     PseudoPot. # 2 for Mn read from file:
     ./Mn.rel-pbe-spn-kjpaw_psl.0.3.1.UPF
     MD5 check sum: dfba1c7561257014502ac20495784078
     Pseudo is Projector augmented-wave + core cor, Zval = 15.0
     Generated using &quot;atomic&quot; code by A. Dal Corso  v.6.2.2
     Shape of augmentation charge: PSQ
     Using radial grid of 1187 points, 10 beta functions with: 
                l(1) =   0
                l(2) =   0
                l(3) =   1
                l(4) =   1
                l(5) =   1
                l(6) =   1
                l(7) =   2
                l(8) =   2
                l(9) =   2
               l(10) =   2
     Q(r) pseudized with 0 coefficients 


     PseudoPot. # 3 for Bi read from file:
     ./Bi.rel-pbe-dn-kjpaw_psl.1.0.0.UPF
     MD5 check sum: 8010b987e9fb97324c8de82fb26a3f7d
     Pseudo is Projector augmented-wave + core cor, Zval = 15.0
     Generated using &quot;atomic&quot; code by A. Dal Corso  v.6.2.2
     Shape of augmentation charge: PSQ
     Using radial grid of 1283 points, 10 beta functions with: 
                l(1) =   0
                l(2) =   0
                l(3) =   1
                l(4) =   1
                l(5) =   1
                l(6) =   1
                l(7) =   2
                l(8) =   2
                l(9) =   2
               l(10) =   2
     Q(r) pseudized with 0 coefficients 


     PseudoPot. # 4 for Te read from file:
     ./Te.rel-pbe-n-kjpaw_psl.1.0.0.UPF
     MD5 check sum: 8399411061dffbb19b40ade5049f5146
     Pseudo is Projector augmented-wave + core cor, Zval =  6.0
     Generated using &quot;atomic&quot; code by A. Dal Corso  v.6.3
     Shape of augmentation charge: PSQ
     Using radial grid of 1245 points, 10 beta functions with: 
                l(1) =   0
                l(2) =   0
                l(3) =   1
                l(4) =   1
                l(5) =   1
                l(6) =   1
                l(7) =   2
                l(8) =   2
                l(9) =   2
               l(10) =   2
     Q(r) pseudized with 0 coefficients 


     atomic species   valence    mass     pseudopotential
        Mn1           15.00    54.93800     Mn( 1.00)
        Mn2           15.00    54.93800     Mn( 1.00)
        Bi            15.00   208.98000     Bi( 1.00)
        Te             6.00   127.60300     Te( 1.00)

      2 Sym. Ops. (no inversion) found


                                    s                        frac. trans.

      isym =  1     identity                                     

 Time Reversal            0
 cryst.   s( 1) = (     1          0          0      )
                  (     0          1          0      )
                  (     0          0          1      )

 cart.    s( 1) = (  1.0000000  0.0000000  0.0000000 )
                  (  0.0000000  1.0000000  0.0000000 )
                  (  0.0000000  0.0000000  1.0000000 )


      isym =  2     inv. 180 deg rotation - cart. axis [1,0,0]   

 Time Reversal            1
 cryst.   s( 2) = (     0          0          1      )
                  (     0          1          0      )
                  (     1          0          0      )

 cart.    s( 2) = ( -1.0000000  0.0000000  0.0000000 )
                  (  0.0000000  1.0000000  0.0000000 )
                  (  0.0000000  0.0000000  1.0000000 )


   Cartesian axes

     site n.     atom                  positions (alat units)
         1           Mn1 tau(   1) = (   0.0000000   0.0000000   0.0000000  )
         2           Mn2 tau(   2) = (   0.0000000   0.0000000   1.4937321  )
         3           Bi  tau(   3) = (   0.0000000   0.0000000   0.6346867  )
         4           Bi  tau(   4) = (   0.0000000   0.0000000   2.1284188  )
         5           Bi  tau(   5) = (   0.0000000   0.0000000   0.8590453  )
         6           Bi  tau(   6) = (   0.0000000   0.0000000   2.3527773  )
         7           Te  tau(   7) = (   0.0000000   0.0000000   0.1992041  )
         8           Te  tau(   8) = (   0.0000000   0.0000000   1.6929361  )
         9           Te  tau(   9) = (   0.0000000   0.0000000   1.2945279  )
        10           Te  tau(  10) = (   0.0000000   0.0000000   2.7882600  )
        11           Te  tau(  11) = (   0.0000000   0.0000000   0.4396119  )
        12           Te  tau(  12) = (   0.0000000   0.0000000   1.9326139  )
        13           Te  tau(  13) = (   0.0000000   0.0000000   1.0541202  )
        14           Te  tau(  14) = (   0.0000000   0.0000000   2.5485822  )

     --------------------------------------------
     DFT-D3 Dispersion Correction (3-body terms):
     --------------------------------------------
       Reference C6 values for interpolation: 

         atom   Coordination number   C6
         Mn1        0.000          1605.50
         Mn1        1.641           479.11
         Mn1        9.885           227.69
         Mn2        0.000          1605.50
         Mn2        1.641           479.11
         Mn2        9.885           227.69
         Te         0.000           851.07
         Te         0.981           850.20
         Te         1.964           837.16
         Bi         0.000          1235.06
         Bi         0.982          1188.09
         Bi         1.966          1132.10
         Bi         2.950          1067.76

       Values used:

         atom   Coordination number  R0_AB[au]  C6      C8
         Mn1        3.847            3.351    479.11  48433.79
         Mn2        3.847            3.351    479.11  48433.79
         Bi         5.296            3.890   1067.76 147315.96
         Bi         5.253            3.890   1067.76 147315.96
         Bi         5.296            3.890   1067.76 147315.96
         Bi         5.253            3.890   1067.76 147315.96
         Te         3.328            3.676    837.16  84978.06
         Te         3.329            3.676    837.16  84978.06
         Te         3.328            3.676    837.16  84978.06
         Te         3.329            3.676    837.16  84978.06
         Te         4.236            3.676    837.16  84978.05
         Te         4.238            3.676    837.16  84978.05
         Te         4.237            3.676    837.16  84978.05
         Te         4.238            3.676    837.16  84978.05

         Molecular C6 ( Ry / a.u.^6 ) =    164642.77


   Crystallographic axes

     site n.     atom                  positions (cryst. coord.)
         1           Mn1 tau(   1) = (  0.0000000  0.0000000  0.0000000  )
         2           Mn2 tau(   2) = (  0.4999980  0.5000035  0.4999980  )
         3           Bi  tau(   3) = (  0.2124492  0.2124515  0.2124492  )
         4           Bi  tau(   4) = (  0.7124472  0.7124550  0.7124472  )
         5           Bi  tau(   5) = (  0.2875489  0.2875520  0.2875489  )
         6           Bi  tau(   6) = (  0.7875469  0.7875555  0.7875469  )
         7           Te  tau(   7) = (  0.0666798  0.0666805  0.0666798  )
         8           Te  tau(   8) = (  0.5666778  0.5666840  0.5666778  )
         9           Te  tau(   9) = (  0.4333183  0.4333230  0.4333183  )
        10           Te  tau(  10) = (  0.9333163  0.9333266  0.9333163  )
        11           Te  tau(  11) = (  0.1471516  0.1471532  0.1471516  )
        12           Te  tau(  12) = (  0.6469053  0.6469124  0.6469053  )
        13           Te  tau(  13) = (  0.3528464  0.3528503  0.3528464  )
        14           Te  tau(  14) = (  0.8530888  0.8530981  0.8530888  )

     number of k points=    36  Marzari-Vanderbilt smearing, width (Ry)=  0.0100
                       cart. coord. in units 2pi/alat
        k(    1) = (   0.0000000   0.0000000   0.0000000), wk =   0.0156250
        k(    2) = (  -1.5805784  -0.9125490   0.0836827), wk =   0.0312500
        k(    3) = (   3.1611569   1.8250979  -0.1673654), wk =   0.0312500
        k(    4) = (   0.0000000   1.8250979   0.0836836), wk =   0.0312500
        k(    5) = (  -1.5805784   0.9125490   0.1673663), wk =   0.0312500
        k(    6) = (   3.1611569   3.6501959  -0.0836818), wk =   0.0312500
        k(    7) = (   1.5805784   2.7376469   0.0000009), wk =   0.0312500
        k(    8) = (   0.0000000  -3.6501959  -0.1673672), wk =   0.0156250
        k(    9) = (  -1.5805784  -4.5627449  -0.0836845), wk =   0.0312500
        k(   10) = (   3.1611569  -1.8250979  -0.3347326), wk =   0.0312500
        k(   11) = (   0.0000000  -1.8250979   0.1673654), wk =   0.0312500
        k(   12) = (   4.7417353   0.9125490  -0.0836827), wk =   0.0312500
        k(   13) = (   3.1611569   0.0000000   0.0000000), wk =   0.0156250
        k(   14) = (   0.0000000   0.0000000   0.2510490), wk =   0.0312500
        k(   15) = (   4.7417353   2.7376469   0.0000009), wk =   0.0312500
        k(   16) = (   3.1611569   1.8250979   0.0836836), wk =   0.0312500
        k(   17) = (   0.0000000  -5.4752938  -0.0000018), wk =   0.0312500
        k(   18) = (   4.7417353  -2.7376469  -0.2510499), wk =   0.0312500
        k(   19) = (   3.1611569  -3.6501959  -0.1673672), wk =   0.0156250
        k(   20) = (   0.0000000  -3.6501959   0.0836818), wk =   0.0312500
        k(   21) = (   4.7417353  -0.9125490  -0.1673663), wk =   0.0312500
        k(   22) = (   0.0000000   3.6501959  -0.3347307), wk =   0.0156250
        k(   23) = (   0.0000000   5.4752938  -0.2510471), wk =   0.0312500
        k(   24) = (   0.0000000   0.0000000  -0.5020979), wk =   0.0156250
        k(   25) = (   1.5805784  -0.9125490   0.0836827), wk =   0.0312500
        k(   26) = (   1.5805784   0.9125490   0.1673663), wk =   0.0312500
        k(   27) = (  -3.1611569   3.6501959  -0.0836818), wk =   0.0312500
        k(   28) = (  -1.5805784   2.7376469   0.0000009), wk =   0.0312500
        k(   29) = (   1.5805784  -4.5627449  -0.0836845), wk =   0.0312500
        k(   30) = (  -4.7417353   0.9125490  -0.0836827), wk =   0.0312500
        k(   31) = (  -3.1611569   0.0000000   0.0000000), wk =   0.0156250
        k(   32) = (  -4.7417353   2.7376469   0.0000009), wk =   0.0312500
        k(   33) = (  -3.1611569   1.8250979   0.0836836), wk =   0.0312500
        k(   34) = (  -4.7417353  -2.7376469  -0.2510499), wk =   0.0312500
        k(   35) = (  -3.1611569  -3.6501959  -0.1673672), wk =   0.0156250
        k(   36) = (  -4.7417353  -0.9125490  -0.1673663), wk =   0.0312500

                       cryst. coord.
        k(    1) = (   0.0000000   0.0000000   0.0000000), wk =   0.0156250
        k(    2) = (   0.0000000   0.0000000   0.2500000), wk =   0.0312500
        k(    3) = (  -0.0000000   0.0000000  -0.5000000), wk =   0.0312500
        k(    4) = (   0.0000000   0.2500000   0.0000000), wk =   0.0312500
        k(    5) = (   0.0000000   0.2500000   0.2500000), wk =   0.0312500
        k(    6) = (  -0.0000000   0.2500000  -0.5000000), wk =   0.0312500
        k(    7) = (  -0.0000000   0.2500000  -0.2500000), wk =   0.0312500
        k(    8) = (   0.0000000  -0.5000000   0.0000000), wk =   0.0156250
        k(    9) = (   0.0000000  -0.5000000   0.2500000), wk =   0.0312500
        k(   10) = (  -0.0000000  -0.5000000  -0.5000000), wk =   0.0312500
        k(   11) = (   0.2500000   0.0000000   0.2500000), wk =   0.0312500
        k(   12) = (   0.2500000   0.0000000  -0.5000000), wk =   0.0312500
        k(   13) = (   0.2500000   0.0000000  -0.2500000), wk =   0.0156250
        k(   14) = (   0.2500000   0.2500000   0.2500000), wk =   0.0312500
        k(   15) = (   0.2500000   0.2500000  -0.5000000), wk =   0.0312500
        k(   16) = (   0.2500000   0.2500000  -0.2500000), wk =   0.0312500
        k(   17) = (   0.2500000  -0.5000000   0.2500000), wk =   0.0312500
        k(   18) = (   0.2500000  -0.5000000  -0.5000000), wk =   0.0312500
        k(   19) = (   0.2500000  -0.5000000  -0.2500000), wk =   0.0156250
        k(   20) = (   0.2500000  -0.2500000   0.2500000), wk =   0.0312500
        k(   21) = (   0.2500000  -0.2500000  -0.5000000), wk =   0.0312500
        k(   22) = (  -0.5000000   0.0000000  -0.5000000), wk =   0.0156250
        k(   23) = (  -0.5000000   0.2500000  -0.5000000), wk =   0.0312500
        k(   24) = (  -0.5000000  -0.5000000  -0.5000000), wk =   0.0156250
        k(   25) = (   0.2500000   0.0000000   0.0000000), wk =   0.0312500
        k(   26) = (   0.2500000   0.2500000   0.0000000), wk =   0.0312500
        k(   27) = (  -0.5000000   0.2500000  -0.0000000), wk =   0.0312500
        k(   28) = (  -0.2500000   0.2500000  -0.0000000), wk =   0.0312500
        k(   29) = (   0.2500000  -0.5000000   0.0000000), wk =   0.0312500
        k(   30) = (  -0.5000000  -0.0000000   0.2500000), wk =   0.0312500
        k(   31) = (  -0.2500000   0.0000000   0.2500000), wk =   0.0156250
        k(   32) = (  -0.5000000   0.2500000   0.2500000), wk =   0.0312500
        k(   33) = (  -0.2500000   0.2500000   0.2500000), wk =   0.0312500
        k(   34) = (  -0.5000000  -0.5000000   0.2500000), wk =   0.0312500
        k(   35) = (  -0.2500000  -0.5000000   0.2500000), wk =   0.0156250
        k(   36) = (  -0.5000000  -0.2500000   0.2500000), wk =   0.0312500

     Dense  grid:   564899 G-vectors     FFT dimensions: ( 375, 375, 375)

     Smooth grid:   187971 G-vectors     FFT dimensions: ( 256, 256, 256)

     Dynamical RAM for                 wfc:       2.48 MB

     Dynamical RAM for     wfc (w. buffer):      91.66 MB

     Dynamical RAM for           str. fact:       0.72 MB

     Dynamical RAM for           local pot:       0.00 MB

     Dynamical RAM for          nlocal pot:       3.55 MB

     Dynamical RAM for                qrad:      18.80 MB

     Dynamical RAM for          rho,v,vnew:     105.15 MB

     Dynamical RAM for               rhoin:      35.05 MB

     Dynamical RAM for            rho*nmix:       5.75 MB

     Dynamical RAM for           G-vectors:       0.70 MB

     Dynamical RAM for          h,s,v(r/c):       1.26 MB

     Dynamical RAM for          <psi|beta>:       2.41 MB

     Dynamical RAM for                 psi:       4.95 MB

     Dynamical RAM for                hpsi:       4.95 MB

     Dynamical RAM for                spsi:       4.95 MB

     Dynamical RAM for      wfcinit/wfcrot:       4.35 MB

     Dynamical RAM for           addusdens:     111.52 MB

     Dynamical RAM for          addusforce:     114.29 MB

     Estimated static dynamical RAM per process >     325.19 MB

     Estimated max dynamical RAM per process >     445.23 MB

     Estimated total dynamical RAM >      20.87 GB

     Atomic positions and unit cell read from directory:
     ./tmp/MnBi2Te4.save/
 
     Generating pointlists ...
     new r_m :   0.0447 (alat units)  2.3139 (a.u.) for type    1
     new r_m :   0.0447 (alat units)  2.3139 (a.u.) for type    2
     new r_m :   0.0456 (alat units)  2.3625 (a.u.) for type    3
     new r_m :   0.0447 (alat units)  2.3139 (a.u.) for type    4

     The initial density is read from file :
     ./tmp/MnBi2Te4.save/charge-density


 ==============================================================================
     atom number    1 relative position :    0.0000   0.0000   0.0000
     charge :    13.657819  (integrated on a sphere of radius 0.045)
     magnetization :         -0.000000   -0.000898    4.327322
     magnetization/charge:   -0.000000   -0.000066    0.316838
     polar coord.: r, theta, phi [deg] :     4.327322    0.011888  -90.000000

 ==============================================================================

 ==============================================================================
     atom number    2 relative position :    0.0000   0.0000   1.4937
     charge :    13.657873  (integrated on a sphere of radius 0.045)
     magnetization :          0.000000   -0.001037   -4.327409
     magnetization/charge:    0.000000   -0.000076   -0.316844
     polar coord.: r, theta, phi [deg] :     4.327409  179.986275  -90.000000

 ==============================================================================

 ==============================================================================
     atom number    3 relative position :    0.0000   0.0000   0.6347
     charge :    12.640447  (integrated on a sphere of radius 0.046)
     magnetization :         -0.000000   -0.000284   -0.023360
     magnetization/charge:   -0.000000   -0.000022   -0.001848
     polar coord.: r, theta, phi [deg] :     0.023362  179.302732  -90.000000

 ==============================================================================

 ==============================================================================
     atom number    4 relative position :    0.0000   0.0000   2.1284
     charge :    12.638788  (integrated on a sphere of radius 0.046)
     magnetization :          0.000000    0.001615    0.022901
     magnetization/charge:    0.000000    0.000128    0.001812
     polar coord.: r, theta, phi [deg] :     0.022958    4.034950   90.000000

 ==============================================================================

 ==============================================================================
     atom number    5 relative position :    0.0000   0.0000   0.8590
     charge :    12.640328  (integrated on a sphere of radius 0.046)
     magnetization :         -0.000000   -0.000240    0.023164
     magnetization/charge:   -0.000000   -0.000019    0.001833
     polar coord.: r, theta, phi [deg] :     0.023166    0.594610  -90.000000

 ==============================================================================

 ==============================================================================
     atom number    6 relative position :    0.0000   0.0000   2.3528
     charge :    12.638913  (integrated on a sphere of radius 0.046)
     magnetization :         -0.000000    0.001289   -0.023103
     magnetization/charge:   -0.000000    0.000102   -0.001828
     polar coord.: r, theta, phi [deg] :     0.023139  176.805867   90.000000

 ==============================================================================

 ==============================================================================
     atom number    7 relative position :    0.0000   0.0000   0.1992
     charge :     3.781990  (integrated on a sphere of radius 0.045)
     magnetization :         -0.000000    0.005362    0.049951
     magnetization/charge:   -0.000000    0.001418    0.013208
     polar coord.: r, theta, phi [deg] :     0.050238    6.126947   90.000000

 ==============================================================================

 ==============================================================================
     atom number    8 relative position :    0.0000   0.0000   1.6929
     charge :     3.782567  (integrated on a sphere of radius 0.045)
     magnetization :         -0.000000   -0.006678   -0.049738
     magnetization/charge:   -0.000000   -0.001765   -0.013149
     polar coord.: r, theta, phi [deg] :     0.050184  172.353284  -90.000000

 ==============================================================================

 ==============================================================================
     atom number    9 relative position :    0.0000   0.0000   1.2945
     charge :     3.782171  (integrated on a sphere of radius 0.045)
     magnetization :         -0.000000    0.005493   -0.049596
     magnetization/charge:   -0.000000    0.001452   -0.013113
     polar coord.: r, theta, phi [deg] :     0.049899  173.680148   90.000000

 ==============================================================================

 ==============================================================================
     atom number   10 relative position :    0.0000   0.0000   2.7883
     charge :     3.782392  (integrated on a sphere of radius 0.045)
     magnetization :         -0.000000   -0.006754    0.050176
     magnetization/charge:   -0.000000   -0.001786    0.013266
     polar coord.: r, theta, phi [deg] :     0.050629    7.666053  -90.000000

 ==============================================================================

 ==============================================================================
     atom number   11 relative position :    0.0000   0.0000   0.4396
     charge :     3.828538  (integrated on a sphere of radius 0.045)
     magnetization :          0.000000    0.001526   -0.012716
     magnetization/charge:    0.000000    0.000399   -0.003321
     polar coord.: r, theta, phi [deg] :     0.012807  173.158019   90.000000

 ==============================================================================

 ==============================================================================
     atom number   12 relative position :    0.0000   0.0000   1.9326
     charge :     3.828204  (integrated on a sphere of radius 0.045)
     magnetization :          0.000000   -0.000843    0.013514
     magnetization/charge:    0.000000   -0.000220    0.003530
     polar coord.: r, theta, phi [deg] :     0.013540    3.569712  -90.000000

 ==============================================================================

 ==============================================================================
     atom number   13 relative position :    0.0000   0.0000   1.0541
     charge :     3.828389  (integrated on a sphere of radius 0.045)
     magnetization :         -0.000000    0.001609    0.012836
     magnetization/charge:   -0.000000    0.000420    0.003353
     polar coord.: r, theta, phi [deg] :     0.012937    7.145486   90.000000

 ==============================================================================

 ==============================================================================
     atom number   14 relative position :    0.0000   0.0000   2.5486
     charge :     3.828218  (integrated on a sphere of radius 0.045)
     magnetization :         -0.000000   -0.001049   -0.013433
     magnetization/charge:   -0.000000   -0.000274   -0.003509
     polar coord.: r, theta, phi [deg] :     0.013473  175.534245  -90.000000

 ==============================================================================
     Starting wfcs from file
     Checking if some PAW data can be deallocated... 
       PAW data deallocated on   44 nodes for type:  1
       PAW data deallocated on   44 nodes for type:  2
       PAW data deallocated on   32 nodes for type:  3
       PAW data deallocated on   24 nodes for type:  4

     total cpu time spent up to now is       39.6 secs

     Self-consistent Calculation

     iteration #  1     ecut=    60.00 Ry     beta= 0.20
     Davidson diagonalization with overlap

---- Real-time Memory Report at c_bands before calling an iterative solver
           554 MiB given to the printing process from OS
             0 MiB allocation reported by mallinfo(arena+hblkhd)
        221208 MiB available memory on the node where the printing process lives
------------------
     ethr =  1.00E-05,  avg # of iterations =  2.0

     Threshold (ethr) on eigenvalues was too large:
     Diagonalizing with lowered threshold

     Davidson diagonalization with overlap

---- Real-time Memory Report at c_bands before calling an iterative solver
           601 MiB given to the printing process from OS
             0 MiB allocation reported by mallinfo(arena+hblkhd)
        218781 MiB available memory on the node where the printing process lives
------------------
     ethr =  2.92E-07,  avg # of iterations =  2.0

 ==============================================================================
     atom number    1 relative position :    0.0000   0.0000   0.0000
     charge :    13.657847  (integrated on a sphere of radius 0.045)
     magnetization :         -0.000000   -0.000944    4.327266
     magnetization/charge:   -0.000000   -0.000069    0.316834
     polar coord.: r, theta, phi [deg] :     4.327266    0.012496  -90.000000

 ==============================================================================

 ==============================================================================
     atom number    2 relative position :    0.0000   0.0000   1.4937
     charge :    13.657910  (integrated on a sphere of radius 0.045)
     magnetization :         -0.000000   -0.001083   -4.327354
     magnetization/charge:   -0.000000   -0.000079   -0.316839
     polar coord.: r, theta, phi [deg] :     4.327354  179.985661  -90.000000

 ==============================================================================

 ==============================================================================
     atom number    3 relative position :    0.0000   0.0000   0.6347
     charge :    12.640476  (integrated on a sphere of radius 0.046)
     magnetization :         -0.000000   -0.000320   -0.023352
     magnetization/charge:   -0.000000   -0.000025   -0.001847
     polar coord.: r, theta, phi [deg] :     0.023355  179.213775  -90.000000

 ==============================================================================

 ==============================================================================
     atom number    4 relative position :    0.0000   0.0000   2.1284
     charge :    12.638828  (integrated on a sphere of radius 0.046)
     magnetization :         -0.000000    0.001655    0.022869
     magnetization/charge:   -0.000000    0.000131    0.001809
     polar coord.: r, theta, phi [deg] :     0.022929    4.139735   90.000000

 ==============================================================================

 ==============================================================================
     atom number    5 relative position :    0.0000   0.0000   0.8590
     charge :    12.640347  (integrated on a sphere of radius 0.046)
     magnetization :         -0.000000   -0.000274    0.023158
     magnetization/charge:   -0.000000   -0.000022    0.001832
     polar coord.: r, theta, phi [deg] :     0.023159    0.678923  -90.000000

 ==============================================================================

 ==============================================================================
     atom number    6 relative position :    0.0000   0.0000   2.3528
     charge :    12.638962  (integrated on a sphere of radius 0.046)
     magnetization :          0.000000    0.001436   -0.023049
     magnetization/charge:    0.000000    0.000114   -0.001824
     polar coord.: r, theta, phi [deg] :     0.023093  176.434164   90.000000

 ==============================================================================

 ==============================================================================
     atom number    7 relative position :    0.0000   0.0000   0.1992
     charge :     3.781749  (integrated on a sphere of radius 0.045)
     magnetization :         -0.000000    0.005264    0.049943
     magnetization/charge:   -0.000000    0.001392    0.013206
     polar coord.: r, theta, phi [deg] :     0.050220    6.016226   90.000000

 ==============================================================================

 ==============================================================================
     atom number    8 relative position :    0.0000   0.0000   1.6929
     charge :     3.782549  (integrated on a sphere of radius 0.045)
     magnetization :         -0.000000   -0.006678   -0.049746
     magnetization/charge:   -0.000000   -0.001765   -0.013151
     polar coord.: r, theta, phi [deg] :     0.050192  172.354636  -90.000000

 ==============================================================================

 ==============================================================================
     atom number    9 relative position :    0.0000   0.0000   1.2945
     charge :     3.781910  (integrated on a sphere of radius 0.045)
     magnetization :         -0.000000    0.005332   -0.049554
     magnetization/charge:   -0.000000    0.001410   -0.013103
     polar coord.: r, theta, phi [deg] :     0.049840  173.858182   90.000000

 ==============================================================================

 ==============================================================================
     atom number   10 relative position :    0.0000   0.0000   2.7883
     charge :     3.782392  (integrated on a sphere of radius 0.045)
     magnetization :          0.000000   -0.006762    0.050216
     magnetization/charge:    0.000000   -0.001788    0.013276
     polar coord.: r, theta, phi [deg] :     0.050669    7.668841  -90.000000

 ==============================================================================

 ==============================================================================
     atom number   11 relative position :    0.0000   0.0000   0.4396
     charge :     3.828628  (integrated on a sphere of radius 0.045)
     magnetization :          0.000000    0.001548   -0.012941
     magnetization/charge:    0.000000    0.000404   -0.003380
     polar coord.: r, theta, phi [deg] :     0.013034  173.177498   90.000000

 ==============================================================================

 ==============================================================================
     atom number   12 relative position :    0.0000   0.0000   1.9326
     charge :     3.828242  (integrated on a sphere of radius 0.045)
     magnetization :          0.000000   -0.000843    0.013604
     magnetization/charge:    0.000000   -0.000220    0.003554
     polar coord.: r, theta, phi [deg] :     0.013630    3.547311  -90.000000

 ==============================================================================

 ==============================================================================
     atom number   13 relative position :    0.0000   0.0000   1.0541
     charge :     3.828465  (integrated on a sphere of radius 0.045)
     magnetization :         -0.000000    0.001608    0.013002
     magnetization/charge:   -0.000000    0.000420    0.003396
     polar coord.: r, theta, phi [deg] :     0.013101    7.051352   90.000000

 ==============================================================================

 ==============================================================================
     atom number   14 relative position :    0.0000   0.0000   2.5486
     charge :     3.828269  (integrated on a sphere of radius 0.045)
     magnetization :         -0.000000   -0.001040   -0.013565
     magnetization/charge:   -0.000000   -0.000272   -0.003543
     polar coord.: r, theta, phi [deg] :     0.013605  175.613980  -90.000000

 ==============================================================================

     total cpu time spent up to now is     5318.8 secs

     total energy              =   -7140.71549763 Ry
     estimated scf accuracy    <       0.00041909 Ry

     total magnetization       =     0.00    -0.01     0.00 Bohr mag/cell
     absolute magnetization    =    10.04 Bohr mag/cell

     iteration #  2     ecut=    60.00 Ry     beta= 0.20
     Davidson diagonalization with overlap

---- Real-time Memory Report at c_bands before calling an iterative solver
           810 MiB given to the printing process from OS
             0 MiB allocation reported by mallinfo(arena+hblkhd)
        217640 MiB available memory on the node where the printing process lives
------------------
     ethr =  3.04E-07,  avg # of iterations =  2.0

 ==============================================================================
     atom number    1 relative position :    0.0000   0.0000   0.0000
     charge :    13.657966  (integrated on a sphere of radius 0.045)
     magnetization :          0.000000   -0.001208    4.327103
     magnetization/charge:    0.000000   -0.000088    0.316819
     polar coord.: r, theta, phi [deg] :     4.327103    0.015999  -90.000000

 ==============================================================================

 ==============================================================================
     atom number    2 relative position :    0.0000   0.0000   1.4937
     charge :    13.658061  (integrated on a sphere of radius 0.045)
     magnetization :          0.000000   -0.001362   -4.327213
     magnetization/charge:    0.000000   -0.000100   -0.316825
     polar coord.: r, theta, phi [deg] :     4.327214  179.981971  -90.000000

 ==============================================================================

 ==============================================================================
     atom number    3 relative position :    0.0000   0.0000   0.6347
     charge :    12.640615  (integrated on a sphere of radius 0.046)
     magnetization :         -0.000000   -0.000543   -0.023305
     magnetization/charge:   -0.000000   -0.000043   -0.001844
     polar coord.: r, theta, phi [deg] :     0.023312  178.665975  -90.000000

 ==============================================================================

 ==============================================================================
     atom number    4 relative position :    0.0000   0.0000   2.1284
     charge :    12.638994  (integrated on a sphere of radius 0.046)
     magnetization :         -0.000000    0.001964    0.022696
     magnetization/charge:   -0.000000    0.000155    0.001796
     polar coord.: r, theta, phi [deg] :     0.022780    4.944794   90.000000

 ==============================================================================

 ==============================================================================
     atom number    5 relative position :    0.0000   0.0000   0.8590
     charge :    12.640446  (integrated on a sphere of radius 0.046)
     magnetization :          0.000000   -0.000494    0.023120
     magnetization/charge:    0.000000   -0.000039    0.001829
     polar coord.: r, theta, phi [deg] :     0.023125    1.223087  -90.000000

 ==============================================================================

 ==============================================================================
     atom number    6 relative position :    0.0000   0.0000   2.3528
     charge :    12.639170  (integrated on a sphere of radius 0.046)
     magnetization :         -0.000000    0.002309   -0.022798
     magnetization/charge:   -0.000000    0.000183   -0.001804
     polar coord.: r, theta, phi [deg] :     0.022914  174.217760   90.000000

 ==============================================================================

 ==============================================================================
     atom number    7 relative position :    0.0000   0.0000   0.1992
     charge :     3.780608  (integrated on a sphere of radius 0.045)
     magnetization :         -0.000000    0.004639    0.049925
     magnetization/charge:   -0.000000    0.001227    0.013206
     polar coord.: r, theta, phi [deg] :     0.050140    5.308262   90.000000

 ==============================================================================

 ==============================================================================
     atom number    8 relative position :    0.0000   0.0000   1.6929
     charge :     3.782463  (integrated on a sphere of radius 0.045)
     magnetization :         -0.000000   -0.006679   -0.049724
     magnetization/charge:   -0.000000   -0.001766   -0.013146
     polar coord.: r, theta, phi [deg] :     0.050171  172.350187  -90.000000

 ==============================================================================

 ==============================================================================
     atom number    9 relative position :    0.0000   0.0000   1.2945
     charge :     3.780692  (integrated on a sphere of radius 0.045)
     magnetization :         -0.000000    0.004357   -0.049328
     magnetization/charge:   -0.000000    0.001152   -0.013047
     polar coord.: r, theta, phi [deg] :     0.049520  174.952681   90.000000

 ==============================================================================

 ==============================================================================
     atom number   10 relative position :    0.0000   0.0000   2.7883
     charge :     3.782379  (integrated on a sphere of radius 0.045)
     magnetization :         -0.000000   -0.006802    0.050402
     magnetization/charge:   -0.000000   -0.001798    0.013326
     polar coord.: r, theta, phi [deg] :     0.050859    7.686421  -90.000000

 ==============================================================================

 ==============================================================================
     atom number   11 relative position :    0.0000   0.0000   0.4396
     charge :     3.829034  (integrated on a sphere of radius 0.045)
     magnetization :          0.000000    0.001778   -0.013806
     magnetization/charge:    0.000000    0.000464   -0.003606
     polar coord.: r, theta, phi [deg] :     0.013920  172.661473   90.000000

 ==============================================================================

 ==============================================================================
     atom number   12 relative position :    0.0000   0.0000   1.9326
     charge :     3.828433  (integrated on a sphere of radius 0.045)
     magnetization :         -0.000000   -0.000827    0.013912
     magnetization/charge:   -0.000000   -0.000216    0.003634
     polar coord.: r, theta, phi [deg] :     0.013937    3.401244  -90.000000

 ==============================================================================

 ==============================================================================
     atom number   13 relative position :    0.0000   0.0000   1.0541
     charge :     3.828800  (integrated on a sphere of radius 0.045)
     magnetization :         -0.000000    0.001609    0.013600
     magnetization/charge:   -0.000000    0.000420    0.003552
     polar coord.: r, theta, phi [deg] :     0.013695    6.746326   90.000000

 ==============================================================================

 ==============================================================================
     atom number   14 relative position :    0.0000   0.0000   2.5486
     charge :     3.828519  (integrated on a sphere of radius 0.045)
     magnetization :          0.000000   -0.000990   -0.014049
     magnetization/charge:    0.000000   -0.000259   -0.003670
     polar coord.: r, theta, phi [deg] :     0.014084  175.970164  -90.000000

 ==============================================================================

     total cpu time spent up to now is     7768.1 secs

     total energy              =   -7140.71567065 Ry
     estimated scf accuracy    <       0.00032061 Ry

     total magnetization       =     0.00    -0.01     0.00 Bohr mag/cell
     absolute magnetization    =    10.05 Bohr mag/cell

     iteration #  3     ecut=    60.00 Ry     beta= 0.20
     Davidson diagonalization with overlap

---- Real-time Memory Report at c_bands before calling an iterative solver
           810 MiB given to the printing process from OS
             0 MiB allocation reported by mallinfo(arena+hblkhd)
        217667 MiB available memory on the node where the printing process lives
------------------
     c_bands:  2 eigenvalues not converged
     ethr =  2.32E-07,  avg # of iterations =  6.4

 ==============================================================================
     atom number    1 relative position :    0.0000   0.0000   0.0000
     charge :    13.657965  (integrated on a sphere of radius 0.045)
     magnetization :         -0.000000   -0.001302    4.327139
     magnetization/charge:   -0.000000   -0.000095    0.316822
     polar coord.: r, theta, phi [deg] :     4.327140    0.017244  -90.000000

 ==============================================================================

 ==============================================================================
     atom number    2 relative position :    0.0000   0.0000   1.4937
     charge :    13.658061  (integrated on a sphere of radius 0.045)
     magnetization :          0.000000   -0.001465   -4.327266
     magnetization/charge:    0.000000   -0.000107   -0.316829
     polar coord.: r, theta, phi [deg] :     4.327267  179.980598  -90.000000

 ==============================================================================

 ==============================================================================
     atom number    3 relative position :    0.0000   0.0000   0.6347
     charge :    12.640626  (integrated on a sphere of radius 0.046)
     magnetization :          0.000000   -0.000648   -0.023302
     magnetization/charge:    0.000000   -0.000051   -0.001843
     polar coord.: r, theta, phi [deg] :     0.023311  178.406089  -90.000000

 ==============================================================================

 ==============================================================================
     atom number    4 relative position :    0.0000   0.0000   2.1284
     charge :    12.638983  (integrated on a sphere of radius 0.046)
     magnetization :          0.000000    0.002240    0.022660
     magnetization/charge:    0.000000    0.000177    0.001793
     polar coord.: r, theta, phi [deg] :     0.022770    5.645186   90.000000

 ==============================================================================

 ==============================================================================
     atom number    5 relative position :    0.0000   0.0000   0.8590
     charge :    12.640455  (integrated on a sphere of radius 0.046)
     magnetization :         -0.000000   -0.000573    0.023112
     magnetization/charge:   -0.000000   -0.000045    0.001828
     polar coord.: r, theta, phi [deg] :     0.023119    1.421166  -90.000000

 ==============================================================================

 ==============================================================================
     atom number    6 relative position :    0.0000   0.0000   2.3528
     charge :    12.639163  (integrated on a sphere of radius 0.046)
     magnetization :          0.000000    0.002699   -0.022776
     magnetization/charge:    0.000000    0.000214   -0.001802
     polar coord.: r, theta, phi [deg] :     0.022936  173.243059   90.000000

 ==============================================================================

 ==============================================================================
     atom number    7 relative position :    0.0000   0.0000   0.1992
     charge :     3.780555  (integrated on a sphere of radius 0.045)
     magnetization :         -0.000000    0.004300    0.049972
     magnetization/charge:   -0.000000    0.001137    0.013218
     polar coord.: r, theta, phi [deg] :     0.050156    4.918178   90.000000

 ==============================================================================

 ==============================================================================
     atom number    8 relative position :    0.0000   0.0000   1.6929
     charge :     3.782448  (integrated on a sphere of radius 0.045)
     magnetization :          0.000000   -0.006607   -0.049654
     magnetization/charge:    0.000000   -0.001747   -0.013127
     polar coord.: r, theta, phi [deg] :     0.050091  172.420341  -90.000000

 ==============================================================================

 ==============================================================================
     atom number    9 relative position :    0.0000   0.0000   1.2945
     charge :     3.780649  (integrated on a sphere of radius 0.045)
     magnetization :         -0.000000    0.003923   -0.049267
     magnetization/charge:   -0.000000    0.001038   -0.013031
     polar coord.: r, theta, phi [deg] :     0.049422  175.446988   90.000000

 ==============================================================================

 ==============================================================================
     atom number   10 relative position :    0.0000   0.0000   2.7883
     charge :     3.782356  (integrated on a sphere of radius 0.045)
     magnetization :         -0.000000   -0.006774    0.050436
     magnetization/charge:   -0.000000   -0.001791    0.013335
     polar coord.: r, theta, phi [deg] :     0.050889    7.649241  -90.000000

 ==============================================================================

 ==============================================================================
     atom number   11 relative position :    0.0000   0.0000   0.4396
     charge :     3.829027  (integrated on a sphere of radius 0.045)
     magnetization :          0.000000    0.001773   -0.013691
     magnetization/charge:    0.000000    0.000463   -0.003576
     polar coord.: r, theta, phi [deg] :     0.013805  172.620868   90.000000

 ==============================================================================

 ==============================================================================
     atom number   12 relative position :    0.0000   0.0000   1.9326
     charge :     3.828447  (integrated on a sphere of radius 0.045)
     magnetization :          0.000000   -0.000792    0.013822
     magnetization/charge:    0.000000   -0.000207    0.003610
     polar coord.: r, theta, phi [deg] :     0.013845    3.280077  -90.000000

 ==============================================================================

 ==============================================================================
     atom number   13 relative position :    0.0000   0.0000   1.0541
     charge :     3.828789  (integrated on a sphere of radius 0.045)
     magnetization :         -0.000000    0.001604    0.013480
     magnetization/charge:   -0.000000    0.000419    0.003521
     polar coord.: r, theta, phi [deg] :     0.013575    6.787479   90.000000

 ==============================================================================

 ==============================================================================
     atom number   14 relative position :    0.0000   0.0000   2.5486
     charge :     3.828536  (integrated on a sphere of radius 0.045)
     magnetization :         -0.000000   -0.000946   -0.013955
     magnetization/charge:   -0.000000   -0.000247   -0.003645
     polar coord.: r, theta, phi [deg] :     0.013987  176.123620  -90.000000

 ==============================================================================

     total cpu time spent up to now is    11196.9 secs

     total energy              =   -7140.71603973 Ry
     estimated scf accuracy    <       0.00003403 Ry

     total magnetization       =     0.00    -0.01     0.00 Bohr mag/cell
     absolute magnetization    =    10.10 Bohr mag/cell

     iteration #  4     ecut=    60.00 Ry     beta= 0.20
     Davidson diagonalization with overlap

---- Real-time Memory Report at c_bands before calling an iterative solver
           825 MiB given to the printing process from OS
             0 MiB allocation reported by mallinfo(arena+hblkhd)
        217085 MiB available memory on the node where the printing process lives
------------------
     ethr =  2.47E-08,  avg # of iterations = 11.8

 ==============================================================================
     atom number    1 relative position :    0.0000   0.0000   0.0000
     charge :    13.657959  (integrated on a sphere of radius 0.045)
     magnetization :         -0.000000   -0.001351    4.327147
     magnetization/charge:   -0.000000   -0.000099    0.316822
     polar coord.: r, theta, phi [deg] :     4.327147    0.017886  -90.000000

 ==============================================================================

 ==============================================================================
     atom number    2 relative position :    0.0000   0.0000   1.4937
     charge :    13.658053  (integrated on a sphere of radius 0.045)
     magnetization :          0.000000   -0.001519   -4.327277
     magnetization/charge:    0.000000   -0.000111   -0.316830
     polar coord.: r, theta, phi [deg] :     4.327277  179.979890  -90.000000

 ==============================================================================

 ==============================================================================
     atom number    3 relative position :    0.0000   0.0000   0.6347
     charge :    12.640623  (integrated on a sphere of radius 0.046)
     magnetization :         -0.000000   -0.000705   -0.023308
     magnetization/charge:   -0.000000   -0.000056   -0.001844
     polar coord.: r, theta, phi [deg] :     0.023319  178.268306  -90.000000

 ==============================================================================

 ==============================================================================
     atom number    4 relative position :    0.0000   0.0000   2.1284
     charge :    12.638965  (integrated on a sphere of radius 0.046)
     magnetization :          0.000000    0.002404    0.022645
     magnetization/charge:    0.000000    0.000190    0.001792
     polar coord.: r, theta, phi [deg] :     0.022772    6.060276   90.000000

 ==============================================================================

 ==============================================================================
     atom number    5 relative position :    0.0000   0.0000   0.8590
     charge :    12.640453  (integrated on a sphere of radius 0.046)
     magnetization :          0.000000   -0.000605    0.023104
     magnetization/charge:    0.000000   -0.000048    0.001828
     polar coord.: r, theta, phi [deg] :     0.023112    1.500863  -90.000000

 ==============================================================================

 ==============================================================================
     atom number    6 relative position :    0.0000   0.0000   2.3528
     charge :    12.639146  (integrated on a sphere of radius 0.046)
     magnetization :         -0.000000    0.002903   -0.022779
     magnetization/charge:   -0.000000    0.000230   -0.001802
     polar coord.: r, theta, phi [deg] :     0.022963  172.736776   90.000000

 ==============================================================================

 ==============================================================================
     atom number    7 relative position :    0.0000   0.0000   0.1992
     charge :     3.780594  (integrated on a sphere of radius 0.045)
     magnetization :          0.000000    0.004106    0.050009
     magnetization/charge:    0.000000    0.001086    0.013228
     polar coord.: r, theta, phi [deg] :     0.050178    4.693607   90.000000

 ==============================================================================

 ==============================================================================
     atom number    8 relative position :    0.0000   0.0000   1.6929
     charge :     3.782440  (integrated on a sphere of radius 0.045)
     magnetization :          0.000000   -0.006549   -0.049610
     magnetization/charge:    0.000000   -0.001731   -0.013116
     polar coord.: r, theta, phi [deg] :     0.050040  172.479916  -90.000000

 ==============================================================================

 ==============================================================================
     atom number    9 relative position :    0.0000   0.0000   1.2945
     charge :     3.780701  (integrated on a sphere of radius 0.045)
     magnetization :         -0.000000    0.003674   -0.049247
     magnetization/charge:   -0.000000    0.000972   -0.013026
     polar coord.: r, theta, phi [deg] :     0.049383  175.733285   90.000000

 ==============================================================================

 ==============================================================================
     atom number   10 relative position :    0.0000   0.0000   2.7883
     charge :     3.782339  (integrated on a sphere of radius 0.045)
     magnetization :         -0.000000   -0.006750    0.050458
     magnetization/charge:   -0.000000   -0.001784    0.013340
     polar coord.: r, theta, phi [deg] :     0.050908    7.618930  -90.000000

 ==============================================================================

 ==============================================================================
     atom number   11 relative position :    0.0000   0.0000   0.4396
     charge :     3.828985  (integrated on a sphere of radius 0.045)
     magnetization :         -0.000000    0.001813   -0.013571
     magnetization/charge:   -0.000000    0.000473   -0.003544
     polar coord.: r, theta, phi [deg] :     0.013691  172.392518   90.000000

 ==============================================================================

 ==============================================================================
     atom number   12 relative position :    0.0000   0.0000   1.9326
     charge :     3.828440  (integrated on a sphere of radius 0.045)
     magnetization :          0.000000   -0.000762    0.013757
     magnetization/charge:    0.000000   -0.000199    0.003593
     polar coord.: r, theta, phi [deg] :     0.013778    3.171446  -90.000000

 ==============================================================================

 ==============================================================================
     atom number   13 relative position :    0.0000   0.0000   1.0541
     charge :     3.828753  (integrated on a sphere of radius 0.045)
     magnetization :         -0.000000    0.001606    0.013377
     magnetization/charge:   -0.000000    0.000419    0.003494
     polar coord.: r, theta, phi [deg] :     0.013473    6.844724   90.000000

 ==============================================================================

 ==============================================================================
     atom number   14 relative position :    0.0000   0.0000   2.5486
     charge :     3.828525  (integrated on a sphere of radius 0.045)
     magnetization :          0.000000   -0.000919   -0.013879
     magnetization/charge:    0.000000   -0.000240   -0.003625
     polar coord.: r, theta, phi [deg] :     0.013909  176.213231  -90.000000

 ==============================================================================

     total cpu time spent up to now is    15142.6 secs

     total energy              =   -7140.71618957 Ry
     estimated scf accuracy    <       0.00002350 Ry

     total magnetization       =     0.00    -0.01     0.00 Bohr mag/cell
     absolute magnetization    =    10.10 Bohr mag/cell

     iteration #  5     ecut=    60.00 Ry     beta= 0.20
     Davidson diagonalization with overlap

---- Real-time Memory Report at c_bands before calling an iterative solver
           862 MiB given to the printing process from OS
             0 MiB allocation reported by mallinfo(arena+hblkhd)
        216538 MiB available memory on the node where the printing process lives
------------------
     ethr =  1.70E-08,  avg # of iterations =  3.6

 ==============================================================================
     atom number    1 relative position :    0.0000   0.0000   0.0000
     charge :    13.657935  (integrated on a sphere of radius 0.045)
     magnetization :          0.000000   -0.001517    4.327169
     magnetization/charge:    0.000000   -0.000111    0.316825
     polar coord.: r, theta, phi [deg] :     4.327169    0.020084  -90.000000

 ==============================================================================

 ==============================================================================
     atom number    2 relative position :    0.0000   0.0000   1.4937
     charge :    13.658020  (integrated on a sphere of radius 0.045)
     magnetization :         -0.000000   -0.001704   -4.327307
     magnetization/charge:   -0.000000   -0.000125   -0.316833
     polar coord.: r, theta, phi [deg] :     4.327308  179.977435  -90.000000

 ==============================================================================

 ==============================================================================
     atom number    3 relative position :    0.0000   0.0000   0.6347
     charge :    12.640602  (integrated on a sphere of radius 0.046)
     magnetization :         -0.000000   -0.000874   -0.023325
     magnetization/charge:   -0.000000   -0.000069   -0.001845
     polar coord.: r, theta, phi [deg] :     0.023341  177.854906  -90.000000

 ==============================================================================

 ==============================================================================
     atom number    4 relative position :    0.0000   0.0000   2.1284
     charge :    12.638895  (integrated on a sphere of radius 0.046)
     magnetization :          0.000000    0.003006    0.022586
     magnetization/charge:    0.000000    0.000238    0.001787
     polar coord.: r, theta, phi [deg] :     0.022786    7.579782   90.000000

 ==============================================================================

 ==============================================================================
     atom number    5 relative position :    0.0000   0.0000   0.8590
     charge :    12.640439  (integrated on a sphere of radius 0.046)
     magnetization :          0.000000   -0.000705    0.023074
     magnetization/charge:    0.000000   -0.000056    0.001825
     polar coord.: r, theta, phi [deg] :     0.023085    1.750460  -90.000000

 ==============================================================================

 ==============================================================================
     atom number    6 relative position :    0.0000   0.0000   2.3528
     charge :    12.639074  (integrated on a sphere of radius 0.046)
     magnetization :         -0.000000    0.003637   -0.022792
     magnetization/charge:   -0.000000    0.000288   -0.001803
     polar coord.: r, theta, phi [deg] :     0.023080  170.933378   90.000000

 ==============================================================================

 ==============================================================================
     atom number    7 relative position :    0.0000   0.0000   0.1992
     charge :     3.780781  (integrated on a sphere of radius 0.045)
     magnetization :         -0.000000    0.003429    0.050164
     magnetization/charge:   -0.000000    0.000907    0.013268
     polar coord.: r, theta, phi [deg] :     0.050281    3.910113   90.000000

 ==============================================================================

 ==============================================================================
     atom number    8 relative position :    0.0000   0.0000   1.6929
     charge :     3.782412  (integrated on a sphere of radius 0.045)
     magnetization :          0.000000   -0.006335   -0.049456
     magnetization/charge:    0.000000   -0.001675   -0.013075
     polar coord.: r, theta, phi [deg] :     0.049860  172.700617  -90.000000

 ==============================================================================

 ==============================================================================
     atom number    9 relative position :    0.0000   0.0000   1.2945
     charge :     3.780938  (integrated on a sphere of radius 0.045)
     magnetization :          0.000000    0.002816   -0.049193
     magnetization/charge:    0.000000    0.000745   -0.013011
     polar coord.: r, theta, phi [deg] :     0.049274  176.723208   90.000000

 ==============================================================================

 ==============================================================================
     atom number   10 relative position :    0.0000   0.0000   2.7883
     charge :     3.782271  (integrated on a sphere of radius 0.045)
     magnetization :          0.000000   -0.006656    0.050543
     magnetization/charge:    0.000000   -0.001760    0.013363
     polar coord.: r, theta, phi [deg] :     0.050979    7.501787  -90.000000

 ==============================================================================

 ==============================================================================
     atom number   11 relative position :    0.0000   0.0000   0.4396
     charge :     3.828819  (integrated on a sphere of radius 0.045)
     magnetization :         -0.000000    0.001847   -0.013118
     magnetization/charge:   -0.000000    0.000482   -0.003426
     polar coord.: r, theta, phi [deg] :     0.013248  171.984940   90.000000

 ==============================================================================

 ==============================================================================
     atom number   12 relative position :    0.0000   0.0000   1.9326
     charge :     3.828402  (integrated on a sphere of radius 0.045)
     magnetization :         -0.000000   -0.000646    0.013509
     magnetization/charge:   -0.000000   -0.000169    0.003529
     polar coord.: r, theta, phi [deg] :     0.013525    2.737322  -90.000000

 ==============================================================================

 ==============================================================================
     atom number   13 relative position :    0.0000   0.0000   1.0541
     charge :     3.828610  (integrated on a sphere of radius 0.045)
     magnetization :         -0.000000    0.001586    0.013007
     magnetization/charge:   -0.000000    0.000414    0.003397
     polar coord.: r, theta, phi [deg] :     0.013103    6.952229   90.000000

 ==============================================================================

 ==============================================================================
     atom number   14 relative position :    0.0000   0.0000   2.5486
     charge :     3.828470  (integrated on a sphere of radius 0.045)
     magnetization :         -0.000000   -0.000817   -0.013585
     magnetization/charge:   -0.000000   -0.000213   -0.003548
     polar coord.: r, theta, phi [deg] :     0.013609  176.558311  -90.000000

 ==============================================================================

     total cpu time spent up to now is    18235.9 secs

     total energy              =   -7140.71642964 Ry
     estimated scf accuracy    <       0.00001765 Ry

     total magnetization       =    -0.00    -0.01     0.00 Bohr mag/cell
     absolute magnetization    =    10.12 Bohr mag/cell

     iteration #  6     ecut=    60.00 Ry     beta= 0.20
     Davidson diagonalization with overlap

---- Real-time Memory Report at c_bands before calling an iterative solver
           862 MiB given to the printing process from OS
             0 MiB allocation reported by mallinfo(arena+hblkhd)
        216656 MiB available memory on the node where the printing process lives
------------------
     c_bands:  2 eigenvalues not converged
     ethr =  1.28E-08,  avg # of iterations = 12.0

 ==============================================================================
     atom number    1 relative position :    0.0000   0.0000   0.0000
     charge :    13.657923  (integrated on a sphere of radius 0.045)
     magnetization :          0.000000   -0.001626    4.327169
     magnetization/charge:    0.000000   -0.000119    0.316825
     polar coord.: r, theta, phi [deg] :     4.327169    0.021532  -90.000000

 ==============================================================================

 ==============================================================================
     atom number    2 relative position :    0.0000   0.0000   1.4937
     charge :    13.658003  (integrated on a sphere of radius 0.045)
     magnetization :         -0.000000   -0.001827   -4.327307
     magnetization/charge:   -0.000000   -0.000134   -0.316833
     polar coord.: r, theta, phi [deg] :     4.327308  179.975809  -90.000000

 ==============================================================================

 ==============================================================================
     atom number    3 relative position :    0.0000   0.0000   0.6347
     charge :    12.640587  (integrated on a sphere of radius 0.046)
     magnetization :          0.000000   -0.000961   -0.023328
     magnetization/charge:    0.000000   -0.000076   -0.001845
     polar coord.: r, theta, phi [deg] :     0.023348  177.639803  -90.000000

 ==============================================================================

 ==============================================================================
     atom number    4 relative position :    0.0000   0.0000   2.1284
     charge :    12.638854  (integrated on a sphere of radius 0.046)
     magnetization :         -0.000000    0.003397    0.022530
     magnetization/charge:   -0.000000    0.000269    0.001783
     polar coord.: r, theta, phi [deg] :     0.022785    8.574980   90.000000

 ==============================================================================

 ==============================================================================
     atom number    5 relative position :    0.0000   0.0000   0.8590
     charge :    12.640429  (integrated on a sphere of radius 0.046)
     magnetization :          0.000000   -0.000758    0.023044
     magnetization/charge:    0.000000   -0.000060    0.001823
     polar coord.: r, theta, phi [deg] :     0.023057    1.884426  -90.000000

 ==============================================================================

 ==============================================================================
     atom number    6 relative position :    0.0000   0.0000   2.3528
     charge :    12.639033  (integrated on a sphere of radius 0.046)
     magnetization :         -0.000000    0.004140   -0.022792
     magnetization/charge:   -0.000000    0.000328   -0.001803
     polar coord.: r, theta, phi [deg] :     0.023165  169.705416   90.000000

 ==============================================================================

 ==============================================================================
     atom number    7 relative position :    0.0000   0.0000   0.1992
     charge :     3.780886  (integrated on a sphere of radius 0.045)
     magnetization :         -0.000000    0.002999    0.050283
     magnetization/charge:   -0.000000    0.000793    0.013299
     polar coord.: r, theta, phi [deg] :     0.050372    3.413754   90.000000

 ==============================================================================

 ==============================================================================
     atom number    8 relative position :    0.0000   0.0000   1.6929
     charge :     3.782386  (integrated on a sphere of radius 0.045)
     magnetization :          0.000000   -0.006190   -0.049360
     magnetization/charge:    0.000000   -0.001636   -0.013050
     polar coord.: r, theta, phi [deg] :     0.049747  172.852629  -90.000000

 ==============================================================================

 ==============================================================================
     atom number    9 relative position :    0.0000   0.0000   1.2945
     charge :     3.781074  (integrated on a sphere of radius 0.045)
     magnetization :          0.000000    0.002257   -0.049176
     magnetization/charge:    0.000000    0.000597   -0.013006
     polar coord.: r, theta, phi [deg] :     0.049228  177.372282   90.000000

 ==============================================================================

 ==============================================================================
     atom number   10 relative position :    0.0000   0.0000   2.7883
     charge :     3.782219  (integrated on a sphere of radius 0.045)
     magnetization :          0.000000   -0.006589    0.050618
     magnetization/charge:    0.000000   -0.001742    0.013383
     polar coord.: r, theta, phi [deg] :     0.051045    7.416438  -90.000000

 ==============================================================================

 ==============================================================================
     atom number   11 relative position :    0.0000   0.0000   0.4396
     charge :     3.828715  (integrated on a sphere of radius 0.045)
     magnetization :         -0.000000    0.001863   -0.012855
     magnetization/charge:   -0.000000    0.000487   -0.003358
     polar coord.: r, theta, phi [deg] :     0.012990  171.752178   90.000000

 ==============================================================================

 ==============================================================================
     atom number   12 relative position :    0.0000   0.0000   1.9326
     charge :     3.828371  (integrated on a sphere of radius 0.045)
     magnetization :         -0.000000   -0.000556    0.013371
     magnetization/charge:   -0.000000   -0.000145    0.003493
     polar coord.: r, theta, phi [deg] :     0.013383    2.381061  -90.000000

 ==============================================================================

 ==============================================================================
     atom number   13 relative position :    0.0000   0.0000   1.0541
     charge :     3.828522  (integrated on a sphere of radius 0.045)
     magnetization :          0.000000    0.001562    0.012790
     magnetization/charge:    0.000000    0.000408    0.003341
     polar coord.: r, theta, phi [deg] :     0.012885    6.964744   90.000000

 ==============================================================================

 ==============================================================================
     atom number   14 relative position :    0.0000   0.0000   2.5486
     charge :     3.828427  (integrated on a sphere of radius 0.045)
     magnetization :          0.000000   -0.000735   -0.013419
     magnetization/charge:    0.000000   -0.000192   -0.003505
     polar coord.: r, theta, phi [deg] :     0.013439  176.862774  -90.000000

 ==============================================================================

     total cpu time spent up to now is    22933.3 secs

     total energy              =   -7140.71676780 Ry
     estimated scf accuracy    <       0.00001552 Ry

     total magnetization       =     0.00    -0.01     0.00 Bohr mag/cell
     absolute magnetization    =    10.15 Bohr mag/cell

     iteration #  7     ecut=    60.00 Ry     beta= 0.20
     Davidson diagonalization with overlap

---- Real-time Memory Report at c_bands before calling an iterative solver
           867 MiB given to the printing process from OS
             0 MiB allocation reported by mallinfo(arena+hblkhd)
        216325 MiB available memory on the node where the printing process lives
------------------
     ethr =  1.12E-08,  avg # of iterations =  8.2

 ==============================================================================
     atom number    1 relative position :    0.0000   0.0000   0.0000
     charge :    13.657927  (integrated on a sphere of radius 0.045)
     magnetization :         -0.000000   -0.001703    4.327141
     magnetization/charge:   -0.000000   -0.000125    0.316823
     polar coord.: r, theta, phi [deg] :     4.327142    0.022552  -90.000000

 ==============================================================================

 ==============================================================================
     atom number    2 relative position :    0.0000   0.0000   1.4937
     charge :    13.658008  (integrated on a sphere of radius 0.045)
     magnetization :         -0.000000   -0.001914   -4.327274
     magnetization/charge:   -0.000000   -0.000140   -0.316831
     polar coord.: r, theta, phi [deg] :     4.327274  179.974656  -90.000000

 ==============================================================================

 ==============================================================================
     atom number    3 relative position :    0.0000   0.0000   0.6347
     charge :    12.640585  (integrated on a sphere of radius 0.046)
     magnetization :         -0.000000   -0.000994   -0.023320
     magnetization/charge:   -0.000000   -0.000079   -0.001845
     polar coord.: r, theta, phi [deg] :     0.023341  177.560209  -90.000000

 ==============================================================================

 ==============================================================================
     atom number    4 relative position :    0.0000   0.0000   2.1284
     charge :    12.638847  (integrated on a sphere of radius 0.046)
     magnetization :         -0.000000    0.003630    0.022466
     magnetization/charge:   -0.000000    0.000287    0.001778
     polar coord.: r, theta, phi [deg] :     0.022758    9.178375   90.000000

 ==============================================================================

 ==============================================================================
     atom number    5 relative position :    0.0000   0.0000   0.8590
     charge :    12.640426  (integrated on a sphere of radius 0.046)
     magnetization :         -0.000000   -0.000763    0.023008
     magnetization/charge:   -0.000000   -0.000060    0.001820
     polar coord.: r, theta, phi [deg] :     0.023020    1.899590  -90.000000

 ==============================================================================

 ==============================================================================
     atom number    6 relative position :    0.0000   0.0000   2.3528
     charge :    12.639030  (integrated on a sphere of radius 0.046)
     magnetization :          0.000000    0.004482   -0.022763
     magnetization/charge:    0.000000    0.000355   -0.001801
     polar coord.: r, theta, phi [deg] :     0.023200  168.860561   90.000000

 ==============================================================================

 ==============================================================================
     atom number    7 relative position :    0.0000   0.0000   0.1992
     charge :     3.780849  (integrated on a sphere of radius 0.045)
     magnetization :         -0.000000    0.002746    0.050377
     magnetization/charge:   -0.000000    0.000726    0.013324
     polar coord.: r, theta, phi [deg] :     0.050451    3.119738   90.000000

 ==============================================================================

 ==============================================================================
     atom number    8 relative position :    0.0000   0.0000   1.6929
     charge :     3.782353  (integrated on a sphere of radius 0.045)
     magnetization :         -0.000000   -0.006096   -0.049315
     magnetization/charge:   -0.000000   -0.001612   -0.013038
     polar coord.: r, theta, phi [deg] :     0.049691  172.953561  -90.000000

 ==============================================================================

 ==============================================================================
     atom number    9 relative position :    0.0000   0.0000   1.2945
     charge :     3.781053  (integrated on a sphere of radius 0.045)
     magnetization :          0.000000    0.001904   -0.049179
     magnetization/charge:    0.000000    0.000504   -0.013007
     polar coord.: r, theta, phi [deg] :     0.049216  177.782939   90.000000

 ==============================================================================

 ==============================================================================
     atom number   10 relative position :    0.0000   0.0000   2.7883
     charge :     3.782177  (integrated on a sphere of radius 0.045)
     magnetization :         -0.000000   -0.006549    0.050699
     magnetization/charge:   -0.000000   -0.001732    0.013405
     polar coord.: r, theta, phi [deg] :     0.051120    7.360850  -90.000000

 ==============================================================================

 ==============================================================================
     atom number   11 relative position :    0.0000   0.0000   0.4396
     charge :     3.828690  (integrated on a sphere of radius 0.045)
     magnetization :         -0.000000    0.001877   -0.012807
     magnetization/charge:   -0.000000    0.000490   -0.003345
[...]
   -13.9779 -13.9768 -13.9741 -13.9715 -13.9651 -13.9640 -13.9622 -13.9597
    -4.0369  -4.0166  -4.0159  -4.0103  -3.8834  -3.8634  -3.8621  -3.8579
    -3.0602  -3.0593  -3.0298  -3.0238  -2.8831  -2.8795  -2.8482  -2.8468
    -2.4331  -2.4187  -2.4107  -2.4028  -2.3452  -2.3370  -2.3237  -2.3187
     2.8020   2.8102   2.9143   2.9232   3.0581   3.0747   3.0964   3.1036
     3.3539   3.3681   3.4272   3.4339   3.5815   3.5891   3.6213   3.6350
     3.8508   3.8593   3.9249   3.9502   4.0604   4.0720   4.2534   4.2689
     4.5249   4.5327   4.6587   4.6679   4.7471   4.7526   4.8462   4.8505
     4.9651   4.9665   5.0523   5.0572   5.0936   5.1016   5.4098   5.4241
     5.4407   5.4522   5.7117   5.7210   5.8373   5.8499   6.1367   6.1442
     6.1480   6.1535   6.3731   6.3808   6.6407   6.6505   7.1300   7.1338
     7.3805   7.3889   8.3522   8.3815   8.4822   8.4942   8.8200   8.8243
     8.8774   8.8810   8.9881   8.9905   9.1010   9.1158   9.1507   9.1561
     9.4155   9.4242   9.5650   9.5692  10.0048  10.0244  10.1000  10.1201
    10.3185  10.3298  10.4234  10.4346  10.7627  10.7715

     occupation numbers 
     1.0000   1.0000   1.0000   1.0000   1.0000   1.0000   1.0000   1.0000
     1.0000   1.0000   1.0000   1.0000   1.0000   1.0000   1.0000   1.0000
     1.0000   1.0000   1.0000   1.0000   1.0000   1.0000   1.0000   1.0000
     1.0000   1.0000   1.0000   1.0000   1.0000   1.0000   1.0000   1.0000
     1.0000   1.0000   1.0000   1.0000   1.0000   1.0000   1.0000   1.0000
     1.0000   1.0000   1.0000   1.0000   1.0000   1.0000   1.0000   1.0000
     1.0000   1.0000   1.0000   1.0000   1.0000   1.0000   1.0000   1.0000
     1.0000   1.0000   1.0000   1.0000   1.0000   1.0000   1.0000   1.0000
     1.0000   1.0000   1.0000   1.0000   1.0000   1.0000   1.0000   1.0000
     1.0000   1.0000   1.0000   1.0000   1.0000   1.0000   1.0000   1.0000
     1.0000   1.0000   1.0000   1.0000   1.0000   1.0000   1.0000   1.0000
     1.0000   1.0000   1.0000   1.0000   1.0000   1.0000   1.0000   1.0000
     1.0000   1.0000   1.0000   1.0000   1.0000   1.0000   1.0000   1.0000
     1.0000   1.0000   1.0000   1.0000   1.0000   1.0000   1.0000   1.0000
     1.0000   1.0000   1.0000   1.0000   1.0000   1.0000   1.0000   1.0000
     1.0000   1.0000   1.0000   1.0000   1.0000   1.0000   1.0000   1.0000
     1.0000   1.0000   1.0000   1.0000   1.0000   1.0000   1.0000   1.0000
     1.0063   1.0079   0.0000   0.0000   0.0000   0.0000   0.0000   0.0000
     0.0000   0.0000   0.0000   0.0000   0.0000   0.0000   0.0000   0.0000
     0.0000   0.0000   0.0000   0.0000   0.0000   0.0000   0.0000   0.0000
     0.0000   0.0000   0.0000   0.0000   0.0000   0.0000

          k =-4.7417-0.9125-0.1674 ( 23556 PWs)   bands (ev):

   -74.0058 -74.0057 -69.4365 -69.4365 -43.2586 -43.2585 -42.8467 -42.8467
   -42.3428 -42.3427 -38.6163 -38.6162 -38.1957 -38.1957 -37.8678 -37.8677
   -16.9778 -16.9774 -16.9736 -16.9720 -16.9715 -16.9714 -16.9704 -16.9700
   -16.9618 -16.9618 -16.9585 -16.9578 -16.9558 -16.9548 -16.9539 -16.9525
   -14.0048 -14.0040 -13.9971 -13.9964 -13.9945 -13.9929 -13.9864 -13.9863
   -13.9860 -13.9855 -13.9811 -13.9809 -13.9803 -13.9797 -13.9782 -13.9782
   -13.9778 -13.9768 -13.9738 -13.9736 -13.9659 -13.9640 -13.9622 -13.9598
    -4.0362  -4.0187  -4.0147  -4.0104  -3.8819  -3.8653  -3.8619  -3.8573
    -3.0614  -3.0585  -3.0279  -3.0251  -2.8840  -2.8783  -2.8485  -2.8466
    -2.4323  -2.4204  -2.4087  -2.4032  -2.3486  -2.3311  -2.3255  -2.3196
     2.8066   2.8092   2.9151   2.9295   3.0597   3.0793   3.0920   3.1030
     3.3581   3.3671   3.4195   3.4276   3.5796   3.5831   3.6270   3.6311
     3.8305   3.8534   3.9412   3.9476   4.0683   4.0731   4.2389   4.2574
     4.5225   4.5266   4.6536   4.6714   4.7494   4.7566   4.8439   4.8498
     4.9651   4.9676   5.0474   5.0529   5.0975   5.1034   5.4217   5.4249
     5.4440   5.4541   5.7124   5.7268   5.8310   5.8517   6.1345   6.1466
     6.1480   6.1676   6.3694   6.3741   6.6415   6.6533   7.1309   7.1411
     7.3822   7.3986   8.3959   8.4178   8.4795   8.5109   8.8236   8.8255
     8.8755   8.8807   8.9792   8.9804   9.1084   9.1145   9.1469   9.1576
     9.4182   9.4221   9.5733   9.5755  10.0001  10.0096  10.0924  10.1083
    10.3132  10.3240  10.4127  10.4197  10.7529  10.7634

     occupation numbers 
     1.0000   1.0000   1.0000   1.0000   1.0000   1.0000   1.0000   1.0000
     1.0000   1.0000   1.0000   1.0000   1.0000   1.0000   1.0000   1.0000
     1.0000   1.0000   1.0000   1.0000   1.0000   1.0000   1.0000   1.0000
     1.0000   1.0000   1.0000   1.0000   1.0000   1.0000   1.0000   1.0000
     1.0000   1.0000   1.0000   1.0000   1.0000   1.0000   1.0000   1.0000
     1.0000   1.0000   1.0000   1.0000   1.0000   1.0000   1.0000   1.0000
     1.0000   1.0000   1.0000   1.0000   1.0000   1.0000   1.0000   1.0000
     1.0000   1.0000   1.0000   1.0000   1.0000   1.0000   1.0000   1.0000
     1.0000   1.0000   1.0000   1.0000   1.0000   1.0000   1.0000   1.0000
     1.0000   1.0000   1.0000   1.0000   1.0000   1.0000   1.0000   1.0000
     1.0000   1.0000   1.0000   1.0000   1.0000   1.0000   1.0000   1.0000
     1.0000   1.0000   1.0000   1.0000   1.0000   1.0000   1.0000   1.0000
     1.0000   1.0000   1.0000   1.0000   1.0000   1.0000   1.0000   1.0000
     1.0000   1.0000   1.0000   1.0000   1.0000   1.0000   1.0000   1.0000
     1.0000   1.0000   1.0000   1.0000   1.0000   1.0000   1.0000   1.0000
     1.0000   1.0000   1.0000   1.0000   1.0000   1.0000   1.0000   1.0000
     1.0000   1.0000   1.0000   1.0000   1.0000   1.0000   1.0000   1.0000
     1.0066   1.0101   0.0000   0.0000   0.0000   0.0000   0.0000   0.0000
     0.0000   0.0000   0.0000   0.0000   0.0000   0.0000   0.0000   0.0000
     0.0000   0.0000   0.0000   0.0000   0.0000   0.0000   0.0000   0.0000
     0.0000   0.0000   0.0000   0.0000   0.0000   0.0000

     the Fermi energy is     7.7400 ev

!    total energy              =   -7140.71669079 Ry
     total all-electron energy =   -286038.783260 Ry
     estimated scf accuracy    <       0.00000097 Ry
     smearing contrib. (-TS)   =       0.00075991 Ry
     internal energy E=F+TS    =   -7140.71745069 Ry

     The total energy is F=E-TS. E is the sum of the following terms:
     one-electron contribution =    -652.73340671 Ry
     hartree contribution      =     404.17301696 Ry
     xc contribution           =    -317.82200079 Ry
     ewald contribution        =    -672.20376010 Ry
     DFT-D3 Dispersion         =      -0.28928838 Ry
     one-center paw contrib.   =   -5901.84201168 Ry
      -> PAW hartree energy AE =     162.41235991 Ry
      -> PAW hartree energy PS =    -163.50150802 Ry
      -> PAW xc energy AE      =    -103.86545004 Ry
      -> PAW xc energy PS      =      27.16277775 Ry
      -> total E_H with PAW    =     403.08386885 Ry
      -> total E_XC with PAW   =    -394.52467308 Ry

     total magnetization       =    -0.00     0.00     0.00 Bohr mag/cell
     absolute magnetization    =    10.15 Bohr mag/cell

     convergence has been achieved in 187 iterations

     Forces acting on atoms (cartesian axes, Ry/au):

     atom    1 type  1   force =     0.00000000    0.00009071   -0.00068202
     atom    2 type  2   force =     0.00000000    0.00006649    0.00064232
     atom    3 type  3   force =     0.00000000    0.00004702   -0.01259749
     atom    4 type  3   force =     0.00000000    0.00004264   -0.01387097
     atom    5 type  3   force =     0.00000000    0.00001434    0.01251011
     atom    6 type  3   force =     0.00000000   -0.00000597    0.01388355
     atom    7 type  4   force =     0.00000000   -0.00016653    0.01426353
     atom    8 type  4   force =     0.00000000   -0.00021561    0.01412620
     atom    9 type  4   force =     0.00000000   -0.00006729   -0.01422905
     atom   10 type  4   force =     0.00000000   -0.00011717   -0.01411457
     atom   11 type  4   force =     0.00000000    0.00010190    0.01782200
     atom   12 type  4   force =     0.00000000    0.00005833    0.02025819
     atom   13 type  4   force =     0.00000000    0.00007114   -0.01779338
     atom   14 type  4   force =     0.00000000    0.00007999   -0.02021841
     The non-local contrib.  to forces
     atom    1 type  1   force =     0.00000000    0.00012972   -0.00230324
     atom    2 type  2   force =     0.00000000    0.00006022    0.00230085
     atom    3 type  3   force =     0.00000000   -0.00030646    0.16473308
     atom    4 type  3   force =     0.00000000   -0.00014949    0.16855194
     atom    5 type  3   force =     0.00000000   -0.00027720   -0.16476455
     atom    6 type  3   force =     0.00000000   -0.00032976   -0.16856059
     atom    7 type  4   force =     0.00000000   -0.00059683   -0.13276121
     atom    8 type  4   force =     0.00000000   -0.00033411   -0.13342754
     atom    9 type  4   force =     0.00000000   -0.00035430    0.13297201
     atom   10 type  4   force =     0.00000000   -0.00037212    0.13333568
     atom   11 type  4   force =     0.00000000    0.00005832   -0.00643837
     atom   12 type  4   force =     0.00000000    0.00000430   -0.00616251
     atom   13 type  4   force =     0.00000000   -0.00000190    0.00646742
     atom   14 type  4   force =     0.00000000    0.00001392    0.00621337
     The ionic contribution  to forces
     atom    1 type  1   force =     0.00000000    0.00006818    0.09086467
     atom    2 type  2   force =     0.00000000   -0.00000074   -0.09106513
     atom    3 type  3   force =     0.00000000    0.00004606   14.32702402
     atom    4 type  3   force =     0.00000000   -0.00004586   14.37094460
     atom    5 type  3   force =    -0.00000000    0.00004017  -14.32712803
     atom    6 type  3   force =    -0.00000000   -0.00004561  -14.37065862
     atom    7 type  4   force =    -0.00000000    0.00003100    7.60936950
     atom    8 type  4   force =     0.00000000   -0.00002446    7.60820763
     atom    9 type  4   force =    -0.00000000    0.00002447   -7.60940611
     atom   10 type  4   force =    -0.00000000   -0.00003073   -7.60811394
     atom   11 type  4   force =     0.00000000    0.00004730   -4.42216119
     atom   12 type  4   force =    -0.00000000   -0.00004766   -4.29552004
     atom   13 type  4   force =     0.00000000   -0.00001510    4.42208496
     atom   14 type  4   force =    -0.00000000   -0.00004702    4.29555768
     The local contribution  to forces
     atom    1 type  1   force =    -0.00000000   -0.00016238   -0.08941755
     atom    2 type  2   force =     0.00000000   -0.00005533    0.08964615
     atom    3 type  3   force =     0.00000000    0.00023536  -14.50067426
     atom    4 type  3   force =    -0.00000000    0.00019983  -14.54946014
     atom    5 type  3   force =    -0.00000000    0.00018465   14.50034928
     atom    6 type  3   force =    -0.00000000    0.00027601   14.54950301
     atom    7 type  4   force =     0.00000000    0.00023108   -7.48291893
     atom    8 type  4   force =    -0.00000000    0.00001817   -7.48162774
     atom    9 type  4   force =     0.00000000    0.00011001    7.48301668
     atom   10 type  4   force =     0.00000000    0.00013462    7.48137411
     atom   11 type  4   force =     0.00000000   -0.00006109    4.44681916
     atom   12 type  4   force =    -0.00000000    0.00003350    4.32227972
     atom   13 type  4   force =    -0.00000000    0.00002084   -4.44666744
     atom   14 type  4   force =    -0.00000000    0.00004779   -4.32236862
     The core correction contribution to forces
     atom    1 type  1   force =     0.00000000   -0.00001868    0.00003705
     atom    2 type  2   force =    -0.00000000   -0.00000703   -0.00003770
     atom    3 type  3   force =     0.00000000    0.00000654   -0.00196546
     atom    4 type  3   force =    -0.00000000    0.00000197   -0.00197212
     atom    5 type  3   force =    -0.00000000    0.00000454    0.00196486
     atom    6 type  3   force =    -0.00000000    0.00000724    0.00197197
     atom    7 type  4   force =     0.00000000    0.00011924    0.02226921
     atom    8 type  4   force =    -0.00000000    0.00005912    0.02245312
     atom    9 type  4   force =    -0.00000000    0.00007022   -0.02230690
     atom   10 type  4   force =    -0.00000000    0.00007154   -0.02243572
     atom   11 type  4   force =     0.00000000   -0.00000918    0.00131425
     atom   12 type  4   force =    -0.00000000   -0.00000035    0.00126764
     atom   13 type  4   force =    -0.00000000   -0.00000040   -0.00131533
     atom   14 type  4   force =     0.00000000   -0.00000064   -0.00126198
     The Hubbard contrib.    to forces
     atom    1 type  1   force =     0.00000000    0.00000000    0.00000000
     atom    2 type  2   force =     0.00000000    0.00000000    0.00000000
     atom    3 type  3   force =     0.00000000    0.00000000    0.00000000
     atom    4 type  3   force =     0.00000000    0.00000000    0.00000000
     atom    5 type  3   force =     0.00000000    0.00000000    0.00000000
     atom    6 type  3   force =     0.00000000    0.00000000    0.00000000
     atom    7 type  4   force =     0.00000000    0.00000000    0.00000000
     atom    8 type  4   force =     0.00000000    0.00000000    0.00000000
     atom    9 type  4   force =     0.00000000    0.00000000    0.00000000
     atom   10 type  4   force =     0.00000000    0.00000000    0.00000000
     atom   11 type  4   force =     0.00000000    0.00000000    0.00000000
     atom   12 type  4   force =     0.00000000    0.00000000    0.00000000
     atom   13 type  4   force =     0.00000000    0.00000000    0.00000000
     atom   14 type  4   force =     0.00000000    0.00000000    0.00000000
     The SCF correction term to forces
     atom    1 type  1   force =     0.00000000    0.00000792    0.00011004
     atom    2 type  2   force =    -0.00000000    0.00000335   -0.00016922
     atom    3 type  3   force =    -0.00000000   -0.00000045   -0.00044197
     atom    4 type  3   force =    -0.00000000   -0.00002986   -0.00070807
     atom    5 type  3   force =     0.00000000   -0.00000378    0.00082126
     atom    6 type  3   force =     0.00000000    0.00002010    0.00040640
     atom    7 type  4   force =    -0.00000000   -0.00001701   -0.00033520
     atom    8 type  4   force =    -0.00000000   -0.00000035   -0.00017152
     atom    9 type  4   force =     0.00000000    0.00001631    0.00014108
     atom   10 type  4   force =     0.00000000    0.00001347    0.00042331
     atom   11 type  4   force =     0.00000000    0.00000059    0.00004259
     atom   12 type  4   force =     0.00000000    0.00000248    0.00018824
     atom   13 type  4   force =    -0.00000000    0.00000168   -0.00011172
     atom   14 type  4   force =    -0.00000000   -0.00000012   -0.00014800

     DFT-D3 dispersion contribution to forces:
     atom    1 type  1   force =     0.00000000   -0.00000006    0.00002985
     atom    2 type  2   force =     0.00000000   -0.00000000   -0.00002978
     atom    3 type  3   force =    -0.00000000   -0.00000005   -0.00127005
     atom    4 type  3   force =     0.00000000    0.00000005   -0.00122433
     atom    5 type  3   force =    -0.00000000   -0.00000005    0.00127013
     atom    6 type  3   force =    -0.00000000    0.00000005    0.00122423
     atom    7 type  4   force =    -0.00000000   -0.00000004   -0.00135699
     atom    8 type  4   force =    -0.00000000    0.00000001   -0.00130490
     atom    9 type  4   force =    -0.00000000   -0.00000001    0.00135704
     atom   10 type  4   force =     0.00000000    0.00000004    0.00130483
     atom   11 type  4   force =     0.00000000   -0.00000005   -0.00175160
     atom   12 type  4   force =     0.00000000    0.00000006   -0.00179201
     atom   13 type  4   force =    -0.00000000    0.00000000    0.00175158
     atom   14 type  4   force =     0.00000000    0.00000005    0.00179200

     Total force =     0.054401     Total SCF correction =     0.001411

     DFT-D3 dispersion Force =     0.005087

     Writing all to output data dir ./tmp/MnBi2Te4.save/
 
     init_run     :     33.69s CPU     36.99s WALL (       1 calls)
     electrons    : 757091.11s CPU 777862.20s WALL (       1 calls)
     forces       :     76.87s CPU     79.91s WALL (       1 calls)
     force_dftd3  :      0.50s CPU      0.60s WALL (       1 calls)

     Called by init_run:
     wfcinit      :     14.81s CPU     16.91s WALL (       1 calls)
     potinit      :      9.43s CPU     10.13s WALL (       1 calls)
     hinit0       :      4.55s CPU      4.72s WALL (       1 calls)

     Called by electrons:
     c_bands      : 652194.51s CPU 670182.30s WALL (     188 calls)
     sum_band     : 102095.13s CPU 104727.86s WALL (     188 calls)
     v_of_rho     :    749.61s CPU    808.58s WALL (     188 calls)
     v_h          :     20.98s CPU     21.94s WALL (     188 calls)
     v_xc         :    732.53s CPU    790.84s WALL (     189 calls)
     newd         :    779.80s CPU    821.10s WALL (     188 calls)
     PAW_pot      :    814.73s CPU    834.23s WALL (     188 calls)
     mix_rho      :    338.43s CPU    359.12s WALL (     188 calls)
     energy_dftd3 :      0.19s CPU      0.19s WALL (       1 calls)

     Called by c_bands:
     init_us_2    :     46.81s CPU     47.64s WALL (   13572 calls)
     init_us_2:cp :     46.56s CPU     47.49s WALL (   13572 calls)
     cegterg      : 651025.47s CPU 668994.60s WALL (    6777 calls)

     Called by sum_band:
     sum_band:wei :      4.32s CPU      4.35s WALL (     188 calls)
     sum_band:loo : 100652.46s CPU 103217.29s WALL (     188 calls)
     sum_band:buf :     14.97s CPU     18.65s WALL (    6768 calls)
     sum_band:ini :     24.18s CPU     24.67s WALL (    6768 calls)
     sum_band:cal :    828.35s CPU    901.29s WALL (    6768 calls)
     sum_band:bec :    430.11s CPU    434.41s WALL (    6768 calls)
     addusdens    :   1266.92s CPU   1326.06s WALL (     188 calls)
                                        0.00s GPU  (     188 calls)
     addusd:skk   :      0.38s CPU      0.44s WALL (     752 calls)
                                        0.00s GPU  (     752 calls)

     Called by *egterg:
     cdiaghg      :   6624.52s CPU   6847.16s WALL (   71448 calls)
     cegterg:over :   2945.47s CPU   3074.44s WALL (   64743 calls)
     cegterg:upda :   2682.75s CPU   2746.20s WALL (   64743 calls)
     cegterg:last :   5170.74s CPU   5294.08s WALL (   24541 calls)
     cdiaghg:chol :    513.49s CPU    520.68s WALL (   71448 calls)
     cdiaghg:inve :     91.20s CPU     92.37s WALL (   71448 calls)
     cdiaghg:para :   1740.45s CPU   1877.97s WALL (  142896 calls)
     h_psi        : 628988.15s CPU 646347.63s WALL (   71520 calls)
     s_psi        :   3934.68s CPU   3974.88s WALL (   71520 calls)
     g_psi        :     41.43s CPU     42.41s WALL (   64743 calls)

     Called by h_psi:
     h_psi:calbec :   3519.44s CPU   3823.44s WALL (   71520 calls)
     vloc_psi     : 621856.61s CPU 638856.41s WALL (   71520 calls)
     add_vuspsi   :   3535.35s CPU   3586.77s WALL (   71520 calls)

     General routines
     calbec       :   4364.95s CPU   4743.74s WALL (   78432 calls)
     fft          :    506.79s CPU    538.82s WALL (    6969 calls)
     ffts         :    160.46s CPU    170.76s WALL (    7054 calls)
     fftw         : 413070.82s CPU 427928.86s WALL (19801688 calls)
     interpolate  :     84.01s CPU     91.07s WALL (     752 calls)
 
     Parallel routines

     PAW routines
     PAW_pot      :    814.73s CPU    834.23s WALL (     188 calls)
     PAW_symme    :      1.34s CPU      1.80s WALL (     375 calls)
 
     PWSCF        :   8d18h20m CPU   9d 0h 6m WALL

 
   This run was terminated on:  17:37:55  20Nov2025            

=------------------------------------------------------------------------------=
   JOB DONE.
=------------------------------------------------------------------------------=
