 
             +---------------------------------------------------+
             |                                                   |
             |                   WANNIER90                       |
             |                                                   |
             +---------------------------------------------------+
             |                                                   |
             |        Welcome to the Maximally-Localized         |
             |        Generalized Wannier Functions code         |
             |            http://www.wannier.org                 |
             |                                                   |
             |                                                   |
             |  Wannier90 Developer Group:                       |
             |    Giovanni Pizzi    (EPFL)                       |
             |    Valerio Vitale    (Cambridge)                  |
             |    David Vanderbilt  (Rutgers University)         |
             |    Nicola Marzari    (EPFL)                       |
             |    Ivo Souza         (Universidad del Pais Vasco) |
             |    Arash A. Mostofi  (Imperial College London)    |
             |    Jonathan R. Yates (University of Oxford)       |
             |                                                   |
             |  For the full list of Wannier90 3.x authors,      |
             |  please check the code documentation and the      |
             |  README on the GitHub page of the code            |
             |                                                   |
             |                                                   |
             |  Please cite                                      |
             |                                                   |
             |  [ref] "Wannier90 as a community code:            |
             |        new features and applications",            |
             |        G. Pizzi et al., J. Phys. Cond. Matt. 32,  |
             |        165902 (2020).                             |
             |        http://doi.org/10.1088/1361-648X/ab51ff    |
             |                                                   |
             |  in any publications arising from the use of      |
             |  this code. For the method please cite            |
             |                                                   |
             |  [ref] "Maximally Localized Generalised Wannier   |
             |         Functions for Composite Energy Bands"     |
             |         N. Marzari and D. Vanderbilt              |
             |         Phys. Rev. B 56 12847 (1997)              |
             |                                                   |
             |  [ref] "Maximally Localized Wannier Functions     |
             |         for Entangled Energy Bands"               |
             |         I. Souza, N. Marzari and D. Vanderbilt    |
             |         Phys. Rev. B 65 035109 (2001)             |
             |                                                   |
             |                                                   |
             | Copyright (c) 1996-2020                           |
             |        The Wannier90 Developer Group and          |
             |        individual contributors                    |
             |                                                   |
             |      Release: 3.1.0        5th March    2020      |
             |                                                   |
             | This program is free software; you can            |
             | redistribute it and/or modify it under the terms  |
             | of the GNU General Public License as published by |
             | the Free Software Foundation; either version 2 of |
             | the License, or (at your option) any later version|
             |                                                   |
             | This program is distributed in the hope that it   |
             | will be useful, but WITHOUT ANY WARRANTY; without |
             | even the implied warranty of MERCHANTABILITY or   |
             | FITNESS FOR A PARTICULAR PURPOSE. See the GNU     |
             | General Public License for more details.          |
             |                                                   |
             | You should have received a copy of the GNU General|
             | Public License along with this program; if not,   |
             | write to the Free Software Foundation, Inc.,      |
             | 675 Mass Ave, Cambridge, MA 02139, USA.           |
             |                                                   |
             +---------------------------------------------------+
             |    Execution started on 11Jan2026 at 03:14:41     |
             +---------------------------------------------------+
 
 ******************************************************************************
 * -> Using CODATA 2006 constant values                                       *
 *    (http://physics.nist.gov/cuu/Constants/index.html)                      *
 * -> Using Bohr value from CODATA                                            *
 ******************************************************************************
 

 Running in parallel on  64 CPUs

 
                                    ------
                                    SYSTEM
                                    ------
 
                              Lattice Vectors (Ang)
                    a_1     2.166809  -1.251015  27.284009
                    a_2     0.000000   2.502002  27.284009
                    a_3    -2.166809  -1.251015  27.284009
 
                   Unit Cell Volume:     443.75088  (Ang^3)
 
                        Reciprocal-Space Vectors (Ang^-1)
                    b_1     1.449871  -0.837085   0.076762
                    b_2     0.000000   1.674169   0.076763
                    b_3    -1.449871  -0.837085   0.076762
  
 *----------------------------------------------------------------------------*
 |   Site       Fractional Coordinate          Cartesian Coordinate (Ang)     |
 +----------------------------------------------------------------------------+
 | Mn   1   0.00000   0.00000   0.00000   |    0.00000   0.00000   0.00000    |
 | Mn   1   0.50000   0.50000   0.50000   |    0.00000   0.00000  40.92600    |
 | Bi   1   0.21245   0.21245   0.21245   |    0.00000   0.00000  17.38946    |
 | Bi   2   0.71245   0.71246   0.71245   |    0.00000   0.00000  58.31546    |
 | Bi   3   0.28755   0.28755   0.28755   |    0.00000   0.00000  23.53654    |
 | Bi   4   0.78755   0.78756   0.78755   |    0.00000   0.00000  64.46255    |
 | Te   1   0.06668   0.06668   0.06668   |    0.00000   0.00000   5.45789    |
 | Te   2   0.56668   0.56668   0.56668   |    0.00000   0.00000  46.38389    |
 | Te   3   0.43332   0.43332   0.43332   |    0.00000   0.00000  35.46811    |
 | Te   4   0.93332   0.93333   0.93332   |    0.00000   0.00000  76.39411    |
 | Te   5   0.14715   0.14715   0.14715   |    0.00000   0.00000  12.04470    |
 | Te   6   0.64691   0.64691   0.64691   |    0.00000   0.00000  52.95070    |
 | Te   7   0.35285   0.35285   0.35285   |    0.00000   0.00000  28.88130    |
 | Te   8   0.85309   0.85310   0.85309   |    0.00000   0.00000  69.82730    |
 *----------------------------------------------------------------------------*
                                ------------
                                K-POINT GRID
                                ------------
  
             Grid size =  8 x  8 x  8      Total points =  512
  
  
 *---------------------------------- MAIN ------------------------------------*
 |  Number of Wannier Functions               :                92             |
 |  Number of Objective Wannier Functions     :                92             |
 |  Number of input Bloch states              :               240             |
 |  Output verbosity (1=low, 5=high)          :                 1             |
 |  Timing Level (1=low, 5=high)              :                 1             |
 |  Optimisation (0=memory, 3=speed)          :                 3             |
 |  Length Unit                               :               Ang             |
 |  Post-processing setup (write *.nnkp)      :                 F             |
 |  Using Gamma-only branch of algorithms     :                 F             |
 *----------------------------------------------------------------------------*
 *------------------------------- WANNIERISE ---------------------------------*
 |  Total number of iterations                :               100             |
 |  Number of CG steps before reset           :                 5             |
 |  Trial step length for line search         :             2.000             |
 |  Convergence tolerence                     :         0.100E-09             |
 |  Convergence window                        :                -1             |
 |  Iterations between writing output         :                 1             |
 |  Iterations between backing up to disk     :               100             |
 |  Write r^2_nm to file                      :                 F             |
 |  Write xyz WF centres to file              :                 T             |
 |  Write on-site energies <0n|H|0n> to file  :                 F             |
 |  Use guiding centre to control phases      :                 F             |
 |  Use phases for initial projections        :                 F             |
 *----------------------------------------------------------------------------*
 *------------------------------- DISENTANGLE --------------------------------*
 |  Using band disentanglement                :                 T             |
 |  Total number of iterations                :              5000             |
 |  Mixing ratio                              :             0.500             |
 |  Convergence tolerence                     :         1.000E-10             |
 |  Convergence window                        :                 3             |
 *----------------------------------------------------------------------------*
 *-------------------------------- PLOTTING ----------------------------------*
 |  Plotting interpolated bandstructure       :                 T             |
 |   Number of K-path sections                :                 5             |
 |   Divisions along first K-path section     :               100             |
 |   Output format                            :           gnuplot             |
 |   Output mode                              :               s-k             |
 *----------------------------------------------------------------------------*
 |   K-space path sections:                                                   |
 |    From: G       0.000  0.000  0.000     To: T       0.500  0.500  0.500   |
 |    From: T       0.500  0.500  0.500     To: P1      0.664  0.172  0.664   |
 |    From: P1      0.664  0.172  0.664     To: F       0.500  0.000  0.500   |
 |    From: F       0.500  0.000  0.500     To: G       0.000  0.000  0.000   |
 |    From: G       0.000  0.000  0.000     To: L       0.500  0.000  0.000   |
 *----------------------------------------------------------------------------*
 |  Plotting Hamiltonian in WF basis          :                 T             |
 *----------------------------------------------------------------------------*
 Time to read parameters        0.088 (sec)

 *---------------------------------- K-MESH ----------------------------------*
 +----------------------------------------------------------------------------+
 |                    Distance to Nearest-Neighbour Shells                    |
 |                    ------------------------------------                    |
 |          Shell             Distance (Ang^-1)          Multiplicity         |
 |          -----             -----------------          ------------         |
 |             1                   0.028786                      2            |
 |             2                   0.057572                      2            |
 |             3                   0.086358                      2            |
 |             4                   0.115144                      2            |
 |             5                   0.143930                      2            |
 |             6                   0.172716                      2            |
 |             7                   0.201502                      2            |
 |             8                   0.209491                      6            |
 |             9                   0.210149                      6            |
 |            10                   0.212761                      6            |
 |            11                   0.214700                      6            |
 |            12                   0.219786                      6            |
 |            13                   0.222905                      6            |
 |            14                   0.230288                      8            |
 |            15                   0.234382                      6            |
 |            16                   0.243627                      6            |
 |            17                   0.248677                      6            |
 |            18                   0.259074                      2            |
 |            19                   0.259546                      6            |
 |            20                   0.265335                      6            |
 |            21                   0.277546                      6            |
 |            22                   0.283941                      6            |
 |            23                   0.287860                      2            |
 |            24                   0.297248                      6            |
 |            25                   0.304138                      6            |
 |            26                   0.316646                      2            |
 |            27                   0.318337                      6            |
 |            28                   0.325629                      6            |
 |            29                   0.340555                      6            |
 |            30                   0.345432                      2            |
 |            31                   0.348175                      6            |
 |            32                   0.362468                      6            |
 |            33                   0.363609                     18            |
 |            34                   0.367011                     12            |
 |            35                   0.371584                      6            |
 |            36                   0.372613                     12            |
 +----------------------------------------------------------------------------+
 | The b-vectors are chosen automatically                                     |
 | The following shells are used:   1,  8                                     |
 +----------------------------------------------------------------------------+
 |                        Shell   # Nearest-Neighbours                        |
 |                        -----   --------------------                        |
 |                          1               2                                 |
 |                          8               6                                 |
 +----------------------------------------------------------------------------+
 | Completeness relation is fully satisfied [Eq. (B1), PRB 56, 12847 (1997)]  |
 +----------------------------------------------------------------------------+
 |                  b_k Vectors (Ang^-1) and Weights (Ang^2)                  |
 |                  ----------------------------------------                  |
 |            No.         b_k(x)      b_k(y)      b_k(z)        w_b           |
 |            ---        --------------------------------     --------        |
 |             1         0.000000    0.000000    0.028786   600.864703        |
 |             2         0.000000    0.000000   -0.028786   600.864703        |
 |             3        -0.181234   -0.104636    0.009595     7.611332        |
 |             4         0.000000    0.209271    0.009595     7.611332        |
 |             5         0.181234   -0.104636    0.009595     7.611332        |
 |             6         0.181234    0.104636   -0.009595     7.611332        |
 |             7        -0.181234    0.104636   -0.009595     7.611332        |
 |             8         0.000000   -0.209271   -0.009595     7.611332        |
 +----------------------------------------------------------------------------+
 |                           b_k Directions (Ang^-1)                          |
 |                           -----------------------                          |
 |            No.           x           y           z                         |
 |            ---        --------------------------------                     |
 |             1         0.000000    0.000000    0.028786                     |
 |             2        -0.181234   -0.104636    0.009595                     |
 |             3         0.000000    0.209271    0.009595                     |
 |             4         0.181234   -0.104636    0.009595                     |
 +----------------------------------------------------------------------------+
  
 Time to get kmesh              0.175 (sec)
 *============================================================================*
 |                              MEMORY ESTIMATE                               |
 |         Maximum RAM allocated during each phase of the calculation         |
 *============================================================================*
 |                        Disentanglement         4916.54 Mb                  |
 |                            Wannierise:         1511.32 Mb                  |
 |                          plot_wannier:         1511.32 Mb                  |
 *----------------------------------------------------------------------------*
  
 Starting a new Wannier90 calculation ...


 Reading overlaps from MnBi2Te4.mmn    :  Created on 10Jan2026 at  7: 3:24

 Reading projections from MnBi2Te4.amn :  Created on 10Jan2026 at  6:54:46

 Time to read overlaps        145.733 (sec)

 *------------------------------- DISENTANGLE --------------------------------*
 +----------------------------------------------------------------------------+
 |                              Energy  Windows                               |
 |                              ---------------                               |
 |                   Outer:   -7.00000  to   20.00000  (eV)                   |
 |                   Inner:    0.00000  to   10.00000  (eV)                   |
 +----------------------------------------------------------------------------+
   Number of target bands to extract:   92

                   Unitarised projection of Wannier functions                  
                   ------------------------------------------                  
   A_mn = <psi_m|g_n> --> S = A.A^+ --> U = S^-1/2.A
   In dis_project... done
   Using an inner window (linner = T)
   In dis_proj_froz... done

                   Extraction of optimally-connected subspace                  
                   ------------------------------------------                  
 +---------------------------------------------------------------------+<-- DIS
 |  Iter     Omega_I(i-1)      Omega_I(i)      Delta (frac.)    Time   |<-- DIS
 +---------------------------------------------------------------------+<-- DIS
       1     441.14323183     393.47238967       1.212E-01      0.00    <-- DIS
       2     390.69622873     374.49657972       4.326E-02      0.61    <-- DIS
       3     378.99640189     363.55393399       4.248E-02      1.22    <-- DIS
       4     367.78141048     354.95460074       3.614E-02      1.84    <-- DIS
       5     358.36239393     347.85899350       3.019E-02      2.45    <-- DIS
       6     350.54117589     341.83840472       2.546E-02      3.06    <-- DIS
       7     343.96357040     336.62328528       2.181E-02      3.68    <-- DIS
       8     338.33610376     332.03284680       1.898E-02      4.28    <-- DIS
       9     333.44136026     327.94059087       1.677E-02      4.89    <-- DIS
      10     329.12195423     324.25491284       1.501E-02      5.50    <-- DIS
      11     325.26357527     320.90751346       1.357E-02      6.10    <-- DIS
      12     321.78204639     317.84617630       1.238E-02      6.72    <-- DIS
      13     318.61424217     315.03010413       1.138E-02      7.33    <-- DIS
      14     315.71188328     312.42681302       1.051E-02      7.94    <-- DIS
      15     313.03731649     310.01000623       9.765E-03      8.52    <-- DIS
      16     310.56062782     307.75808289       9.106E-03      9.13    <-- DIS
      17     308.25764435     305.65306879       8.521E-03      9.75    <-- DIS
      18     306.10853038     303.67983469       7.998E-03     10.36    <-- DIS
      19     304.09678460     301.82551463       7.525E-03     10.97    <-- DIS
      20     302.20851130     300.07906613       7.096E-03     11.57    <-- DIS
      21     300.43188170     298.43093288       6.705E-03     12.17    <-- DIS
      22     298.75672921     296.87278258       6.346E-03     12.80    <-- DIS
      23     297.17424066     295.39730070       6.015E-03     13.41    <-- DIS
      24     295.67671735     293.99802650       5.710E-03     14.04    <-- DIS
      25     294.25738763     292.66922120       5.426E-03     14.66    <-- DIS
      26     292.91025822     291.40576116       5.163E-03     15.28    <-- DIS
      27     291.62999485     290.20305038       4.917E-03     15.87    <-- DIS
      28     290.41182552     289.05694839       4.687E-03     16.49    <-- DIS
      29     289.25146137     287.96371031       4.472E-03     17.10    <-- DIS
      30     288.14503130     286.91993666       4.270E-03     17.71    <-- DIS
      31     287.08902772     285.92253109       4.080E-03     18.33    <-- DIS
      32     286.08026098     284.96866453       3.901E-03     18.93    <-- DIS
      33     285.11582096     284.05574463       3.732E-03     19.53    <-- DIS
      34     284.19304452     283.18138960       3.572E-03     20.14    <-- DIS
      35     283.30948759     282.34340557       3.422E-03     20.74    <-- DIS
      36     282.46290134     281.53976710       3.279E-03     21.36    <-- DIS
      37     281.65121152     280.76860014       3.144E-03     21.96    <-- DIS
      38     280.87250053     280.02816719       3.015E-03     22.57    <-- DIS
      39     280.12499192     279.31685429       2.893E-03     23.18    <-- DIS
      40     279.40703668     278.63315952       2.777E-03     23.80    <-- DIS
      41     278.71710127     277.97568290       2.667E-03     24.42    <-- DIS
      42     278.05375710     277.34311740       2.562E-03     25.02    <-- DIS
      43     277.41567112     276.73424093       2.462E-03     25.62    <-- DIS
      44     276.80159759     276.14790922       2.367E-03     26.24    <-- DIS
      45     276.21037060     275.58304945       2.276E-03     26.86    <-- DIS
      46     275.64089755     275.03865452       2.190E-03     27.47    <-- DIS
      47     275.09215314     274.51377790       2.107E-03     28.09    <-- DIS
      48     274.56317414     274.00752896       2.028E-03     28.70    <-- DIS
      49     274.05305450     273.51906883       1.952E-03     29.33    <-- DIS
      50     273.56094111     273.04760651       1.880E-03     29.95    <-- DIS
      51     273.08602981     272.59239547       1.811E-03     30.54    <-- DIS
      52     272.62756186     272.15273051       1.745E-03     31.14    <-- DIS
      53     272.18482071     271.72794484       1.681E-03     31.75    <-- DIS
      54     271.75712903     271.31740748       1.621E-03     32.35    <-- DIS
      55     271.34384603     270.92052087       1.563E-03     32.96    <-- DIS
      56     270.94436500     270.53671867       1.507E-03     33.57    <-- DIS
      57     270.55811105     270.16546371       1.453E-03     34.19    <-- DIS
      58     270.18453903     269.80624615       1.402E-03     34.82    <-- DIS
      59     269.82313163     269.45858175       1.353E-03     35.43    <-- DIS
      60     269.47339760     269.12201030       1.306E-03     36.03    <-- DIS
      61     269.13487018     268.79609415       1.260E-03     36.63    <-- DIS
      62     268.80710556     268.48041686       1.217E-03     37.25    <-- DIS
      63     268.48968152     268.17458193       1.175E-03     37.87    <-- DIS
      64     268.18219611     267.87821166       1.135E-03     38.49    <-- DIS
      65     267.88426653     267.59094604       1.096E-03     39.10    <-- DIS
      66     267.59552794     267.31244175       1.059E-03     39.72    <-- DIS
      67     267.31563250     267.04237124       1.023E-03     40.33    <-- DIS
      68     267.04424838     266.78042184       9.889E-04     40.95    <-- DIS
      69     266.78105888     266.52629495       9.559E-04     41.56    <-- DIS
      70     266.52576158     266.27970528       9.241E-04     42.18    <-- DIS
      71     266.27806761     266.04038012       8.934E-04     42.79    <-- DIS
      72     266.03770086     265.80805869       8.639E-04     43.40    <-- DIS
      73     265.80439734     265.58249151       8.355E-04     44.01    <-- DIS
      74     265.57790454     265.36343984       8.082E-04     44.63    <-- DIS
      75     265.35798085     265.15067508       7.818E-04     45.25    <-- DIS
      76     265.14439493     264.94397828       7.564E-04     45.86    <-- DIS
      77     264.93692529     264.74313967       7.320E-04     46.46    <-- DIS
      78     264.73535970     264.54795819       7.084E-04     47.08    <-- DIS
      79     264.53949480     264.35824103       6.856E-04     47.69    <-- DIS
      80     264.34913559     264.17380330       6.637E-04     48.31    <-- DIS
      81     264.16409511     263.99446757       6.425E-04     48.93    <-- DIS
      82     263.98419395     263.82006357       6.221E-04     49.54    <-- DIS
      83     263.80925998     263.65042779       6.024E-04     50.15    <-- DIS
      84     263.63912793     263.48540324       5.834E-04     50.75    <-- DIS
      85     263.47363910     263.32483907       5.651E-04     51.36    <-- DIS
      86     263.31264107     263.16859032       5.474E-04     51.98    <-- DIS
      87     263.15598737     263.01651767       5.303E-04     52.56    <-- DIS
      88     263.00353721     262.86848714       5.138E-04     53.17    <-- DIS
      89     262.85515525     262.72436986       4.978E-04     53.78    <-- DIS
      90     262.71071134     262.58404187       4.824E-04     54.38    <-- DIS
      91     262.57008027     262.44738387       4.675E-04     55.00    <-- DIS
      92     262.43314157     262.31428101       4.531E-04     55.61    <-- DIS
      93     262.29977927     262.18462274       4.392E-04     56.20    <-- DIS
      94     262.16988176     262.05830256       4.258E-04     56.80    <-- DIS
      95     262.04334153     261.93521789       4.128E-04     57.41    <-- DIS
      96     261.92005504     261.81526988       4.002E-04     58.03    <-- DIS
      97     261.79992253     261.69836328       3.881E-04     58.64    <-- DIS
      98     261.68284787     261.58440624       3.763E-04     59.25    <-- DIS
      99     261.56873840     261.47331021       3.650E-04     59.87    <-- DIS
     100     261.45750477     261.36498978       3.540E-04     60.48    <-- DIS
     101     261.34906082     261.25936255       3.433E-04     61.11    <-- DIS
     102     261.24332344     261.15634902       3.330E-04     61.72    <-- DIS
     103     261.14021245     261.05587246       3.231E-04     62.33    <-- DIS
     104     261.03965048     260.95785880       3.134E-04     62.95    <-- DIS
     105     260.94156284     260.86223651       3.041E-04     63.55    <-- DIS
     106     260.84587742     260.76893654       2.951E-04     64.17    <-- DIS
     107     260.75252459     260.67789217       2.863E-04     64.80    <-- DIS
     108     260.66143711     260.58903892       2.778E-04     65.38    <-- DIS
     109     260.57255001     260.50231453       2.696E-04     65.99    <-- DIS
     110     260.48580053     260.41765878       2.617E-04     66.60    <-- DIS
     111     260.40112799     260.33501348       2.540E-04     67.22    <-- DIS
     112     260.31847376     260.25432234       2.465E-04     67.84    <-- DIS
     113     260.23778115     260.17553096       2.393E-04     68.45    <-- DIS
     114     260.15899534     260.09858668       2.323E-04     69.07    <-- DIS
     115     260.08206331     260.02343858       2.255E-04     69.69    <-- DIS
     116     260.00693377     259.95003738       2.189E-04     70.29    <-- DIS
     117     259.93355710     259.87833539       2.125E-04     70.90    <-- DIS
     118     259.86188528     259.80828644       2.063E-04     71.51    <-- DIS
     119     259.79187182     259.73984584       2.003E-04     72.13    <-- DIS
     120     259.72347174     259.67297031       1.945E-04     72.74    <-- DIS
     121     259.65664148     259.60761793       1.888E-04     73.36    <-- DIS
     122     259.59133884     259.54374811       1.834E-04     73.98    <-- DIS
     123     259.52752298     259.48132150       1.781E-04     74.60    <-- DIS
     124     259.46515430     259.42030000       1.729E-04     75.22    <-- DIS
     125     259.40419447     259.36064666       1.679E-04     75.84    <-- DIS
     126     259.34460632     259.30232569       1.631E-04     76.46    <-- DIS
     127     259.28635384     259.24530238       1.583E-04     77.06    <-- DIS
     128     259.22940211     259.18954307       1.538E-04     77.68    <-- DIS
     129     259.17371729     259.13501513       1.494E-04     78.30    <-- DIS
     130     259.11926657     259.08168691       1.450E-04     78.92    <-- DIS
     131     259.06601811     259.02952770       1.409E-04     79.53    <-- DIS
     132     259.01394104     258.97850772       1.368E-04     80.15    <-- DIS
     133     258.96300542     258.92859806       1.329E-04     80.76    <-- DIS
     134     258.91318219     258.87977067       1.291E-04     81.37    <-- DIS
     135     258.86444316     258.83199832       1.254E-04     81.97    <-- DIS
     136     258.81676096     258.78525460       1.217E-04     82.58    <-- DIS
     137     258.77010903     258.73951383       1.182E-04     83.20    <-- DIS
     138     258.72446160     258.69475110       1.148E-04     83.80    <-- DIS
     139     258.67979361     258.65094221       1.115E-04     84.42    <-- DIS
     140     258.63608077     258.60806366       1.083E-04     85.03    <-- DIS
     141     258.59329945     258.56609262       1.052E-04     85.64    <-- DIS
     142     258.55142674     258.52500691       1.022E-04     86.26    <-- DIS
     143     258.51044034     258.48478498       9.925E-05     86.89    <-- DIS
     144     258.47031862     258.44540587       9.639E-05     87.50    <-- DIS
     145     258.43104054     258.40684924       9.362E-05     88.11    <-- DIS
     146     258.39258565     258.36909529       9.092E-05     88.69    <-- DIS
     147     258.35493410     258.33212479       8.829E-05     89.31    <-- DIS
     148     258.31806656     258.29591903       8.574E-05     89.94    <-- DIS
     149     258.28196426     258.26045983       8.327E-05     90.55    <-- DIS
     150     258.24660895     258.22572949       8.086E-05     91.15    <-- DIS
     151     258.21198286     258.19171081       7.852E-05     91.76    <-- DIS
     152     258.17806873     258.15838705       7.624E-05     92.38    <-- DIS
     153     258.14484977     258.12574194       7.403E-05     92.99    <-- DIS
     154     258.11230963     258.09375963       7.187E-05     93.60    <-- DIS
     155     258.08043242     258.06242469       6.978E-05     94.21    <-- DIS
     156     258.04920268     258.03172214       6.775E-05     94.82    <-- DIS
     157     258.01860535     258.00163736       6.577E-05     95.44    <-- DIS
     158     257.98862578     257.97215614       6.384E-05     96.04    <-- DIS
     159     257.95924972     257.94326464       6.197E-05     96.66    <-- DIS
     160     257.93046328     257.91494939       6.015E-05     97.27    <-- DIS
     161     257.90225295     257.88719726       5.838E-05     97.88    <-- DIS
     162     257.87460558     257.85999548       5.666E-05     98.47    <-- DIS
     163     257.84750834     257.83333160       5.498E-05     99.08    <-- DIS
     164     257.82094877     257.80719350       5.335E-05     99.71    <-- DIS
     165     257.79491470     257.78156936       5.177E-05    100.32    <-- DIS
     166     257.76939430     257.75644770       5.023E-05    100.94    <-- DIS
     167     257.74437604     257.73181728       4.873E-05    101.55    <-- DIS
     168     257.71984869     257.70766720       4.727E-05    102.16    <-- DIS
     169     257.69580128     257.68398680       4.585E-05    102.77    <-- DIS
     170     257.67222315     257.66076571       4.447E-05    103.36    <-- DIS
     171     257.64910391     257.63799382       4.312E-05    103.97    <-- DIS
     172     257.62643343     257.61566126       4.181E-05    104.58    <-- DIS
     173     257.60420181     257.59375842       4.054E-05    105.18    <-- DIS
     174     257.58239943     257.57227593       3.930E-05    105.79    <-- DIS
     175     257.56101690     257.55120465       3.810E-05    106.41    <-- DIS
     176     257.54004507     257.53053567       3.693E-05    107.03    <-- DIS
     177     257.51947501     257.51026030       3.578E-05    107.64    <-- DIS
     178     257.49929800     257.49037006       3.467E-05    108.24    <-- DIS
     179     257.47950557     257.47085667       3.359E-05    108.84    <-- DIS
     180     257.46008943     257.45171207       3.254E-05    109.45    <-- DIS
     181     257.44104150     257.43292839       3.152E-05    110.07    <-- DIS
     182     257.42235389     257.41449795       3.052E-05    110.68    <-- DIS
     183     257.40401892     257.39641325       2.955E-05    111.30    <-- DIS
     184     257.38602908     257.37866697       2.860E-05    111.91    <-- DIS
     185     257.36837706     257.36125199       2.769E-05    112.51    <-- DIS
     186     257.35105569     257.34416133       2.679E-05    113.12    <-- DIS
     187     257.33405802     257.32738819       2.592E-05    113.72    <-- DIS
     188     257.31737723     257.31092594       2.507E-05    114.33    <-- DIS
     189     257.30100668     257.29476808       2.425E-05    114.94    <-- DIS
     190     257.28493987     257.27890829       2.344E-05    115.55    <-- DIS
     191     257.26917048     257.26334040       2.266E-05    116.16    <-- DIS
     192     257.25369233     257.24805836       2.190E-05    116.76    <-- DIS
     193     257.23849936     257.23305628       2.116E-05    117.37    <-- DIS
     194     257.22358570     257.21832841       2.044E-05    117.98    <-- DIS
     195     257.20894557     257.20386912       1.974E-05    118.59    <-- DIS
     196     257.19457335     257.18967293       1.905E-05    119.20    <-- DIS
     197     257.18046356     257.17573446       1.839E-05    119.81    <-- DIS
     198     257.16661081     257.16204847       1.774E-05    120.41    <-- DIS
     199     257.15300988     257.14860985       1.711E-05    121.01    <-- DIS
     200     257.13965563     257.13541359       1.650E-05    121.63    <-- DIS
     201     257.12654306     257.12245479       1.590E-05    122.24    <-- DIS
     202     257.11366728     257.10972869       1.532E-05    122.85    <-- DIS
     203     257.10102352     257.09723060       1.475E-05    123.46    <-- DIS
     204     257.08860710     257.08495597       1.420E-05    124.08    <-- DIS
     205     257.07641346     257.07290034       1.367E-05    124.70    <-- DIS
     206     257.06443813     257.06105933       1.314E-05    125.33    <-- DIS
     207     257.05267676     257.04942869       1.264E-05    125.92    <-- DIS
     208     257.04112508     257.03800424       1.214E-05    126.54    <-- DIS
     209     257.02977893     257.02678192       1.166E-05    127.15    <-- DIS
     210     257.01863422     257.01575773       1.119E-05    127.76    <-- DIS
     211     257.00768699     257.00492779       1.074E-05    128.36    <-- DIS
     212     256.99693333     256.99428827       1.029E-05    128.97    <-- DIS
     213     256.98636943     256.98383545       9.860E-06    129.60    <-- DIS
     214     256.97599157     256.97356568       9.440E-06    130.21    <-- DIS
     215     256.96579611     256.96347540       9.031E-06    130.80    <-- DIS
     216     256.95577948     256.95356113       8.633E-06    131.41    <-- DIS
     217     256.94593819     256.94381944       8.246E-06    132.02    <-- DIS
     218     256.93626885     256.93424701       7.869E-06    132.63    <-- DIS
     219     256.92676811     256.92484056       7.502E-06    133.23    <-- DIS
     220     256.91743271     256.91559690       7.146E-06    133.84    <-- DIS
     221     256.90825946     256.90651291       6.798E-06    134.45    <-- DIS
     222     256.89924523     256.89758552       6.461E-06    135.04    <-- DIS
     223     256.89038698     256.88881174       6.132E-06    135.66    <-- DIS
     224     256.88168171     256.88018864       5.812E-06    136.26    <-- DIS
     225     256.87312649     256.87171336       5.501E-06    136.86    <-- DIS
     226     256.86471846     256.86338309       5.199E-06    137.47    <-- DIS
     227     256.85645482     256.85519507       4.905E-06    138.08    <-- DIS
     228     256.84833283     256.84714663       4.618E-06    138.69    <-- DIS
     229     256.84034980     256.83923513       4.340E-06    139.29    <-- DIS
     230     256.83250310     256.83145799       4.069E-06    139.89    <-- DIS
     231     256.82479015     256.82381269       3.806E-06    140.49    <-- DIS
     232     256.81720845     256.81629676       3.550E-06    141.11    <-- DIS
     233     256.80975552     256.80890778       3.301E-06    141.72    <-- DIS
     234     256.80242896     256.80164339       3.059E-06    142.33    <-- DIS
     235     256.79522638     256.79450125       2.824E-06    142.93    <-- DIS
     236     256.78814549     256.78747911       2.595E-06    143.53    <-- DIS
     237     256.78118401     256.78057474       2.373E-06    144.13    <-- DIS
     238     256.77433973     256.77378596       2.157E-06    144.74    <-- DIS
     239     256.76761047     256.76711063       1.947E-06    145.34    <-- DIS
     240     256.76099409     256.76054667       1.743E-06    145.95    <-- DIS
     241     256.75448853     256.75409203       1.544E-06    146.55    <-- DIS
     242     256.74809172     256.74774470       1.352E-06    147.15    <-- DIS
     243     256.74180167     256.74150273       1.164E-06    147.73    <-- DIS
     244     256.73561643     256.73536417       9.826E-07    148.33    <-- DIS
     245     256.72953407     256.72932716       8.059E-07    148.92    <-- DIS
     246     256.72355271     256.72338984       6.344E-07    149.52    <-- DIS
     247     256.71767050     256.71755040       4.678E-07    150.11    <-- DIS
     248     256.71188565     256.71180707       3.061E-07    150.71    <-- DIS
     249     256.70619637     256.70615810       1.491E-07    151.31    <-- DIS
     250     256.70060094     256.70060180      -3.342E-09    151.92    <-- DIS
     251     256.69509767     256.69513650      -1.513E-07    152.53    <-- DIS
     252     256.68968487     256.68976056      -2.949E-07    153.14    <-- DIS
     253     256.68436093     256.68447237      -4.342E-07    153.75    <-- DIS
     254     256.67912423     256.67927037      -5.693E-07    154.35    <-- DIS
     255     256.67397323     256.67415301      -7.004E-07    154.95    <-- DIS
     256     256.66890637     256.66911878      -8.276E-07    155.56    <-- DIS
     257     256.66392215     256.66416621      -9.509E-07    156.17    <-- DIS
     258     256.65901910     256.65929384      -1.070E-06    156.79    <-- DIS
     259     256.65419577     256.65450025      -1.186E-06    157.40    <-- DIS
     260     256.64945073     256.64978404      -1.299E-06    158.00    <-- DIS
     261     256.64478261     256.64514385      -1.408E-06    158.60    <-- DIS
     262     256.64019004     256.64057833      -1.513E-06    159.21    <-- DIS
     263     256.63567167     256.63608617      -1.615E-06    159.83    <-- DIS
     264     256.63122620     256.63166608      -1.714E-06    160.44    <-- DIS
     265     256.62685234     256.62731680      -1.810E-06    161.05    <-- DIS
     266     256.62254884     256.62303708      -1.903E-06    161.67    <-- DIS
     267     256.61831445     256.61882571      -1.992E-06    162.28    <-- DIS
     268     256.61414797     256.61468150      -2.079E-06    162.89    <-- DIS
     269     256.61004821     256.61060327      -2.163E-06    163.51    <-- DIS
     270     256.60601399     256.60658988      -2.244E-06    164.11    <-- DIS
     271     256.60204418     256.60264021      -2.323E-06    164.72    <-- DIS
     272     256.59813765     256.59875314      -2.399E-06    165.33    <-- DIS
     273     256.59429332     256.59492760      -2.472E-06    165.94    <-- DIS
     274     256.59051008     256.59116253      -2.543E-06    166.56    <-- DIS
     275     256.58678690     256.58745687      -2.611E-06    167.18    <-- DIS
     276     256.58312272     256.58380962      -2.677E-06    167.78    <-- DIS
     277     256.57951653     256.58021976      -2.741E-06    168.39    <-- DIS
     278     256.57596734     256.57668631      -2.802E-06    169.00    <-- DIS
     279     256.57247416     256.57320831      -2.861E-06    169.61    <-- DIS
     280     256.56903602     256.56978481      -2.918E-06    170.23    <-- DIS
     281     256.56565199     256.56641487      -2.973E-06    170.83    <-- DIS
     282     256.56232114     256.56309759      -3.026E-06    171.43    <-- DIS
     283     256.55904256     256.55983207      -3.077E-06    172.04    <-- DIS
     284     256.55581536     256.55661743      -3.126E-06    172.66    <-- DIS
     285     256.55263867     256.55345282      -3.173E-06    173.26    <-- DIS
     286     256.54951161     256.55033737      -3.219E-06    173.87    <-- DIS
     287     256.54643336     256.54727027      -3.262E-06    174.48    <-- DIS
     288     256.54340309     256.54425069      -3.304E-06    175.09    <-- DIS
     289     256.54041998     256.54127784      -3.344E-06    175.71    <-- DIS
     290     256.53748323     256.53835093      -3.382E-06    176.31    <-- DIS
     291     256.53459207     256.53546919      -3.419E-06    176.93    <-- DIS
     292     256.53174573     256.53263186      -3.454E-06    177.54    <-- DIS
     293     256.52894345     256.52983820      -3.488E-06    178.14    <-- DIS
     294     256.52618449     256.52708749      -3.520E-06    178.75    <-- DIS
     295     256.52346813     256.52437900      -3.551E-06    179.36    <-- DIS
     296     256.52079366     256.52171202      -3.580E-06    179.97    <-- DIS
     297     256.51816037     256.51908588      -3.608E-06    180.57    <-- DIS
     298     256.51556758     256.51649989      -3.635E-06    181.17    <-- DIS
     299     256.51301461     256.51395339      -3.660E-06    181.78    <-- DIS
     300     256.51050081     256.51144573      -3.684E-06    182.38    <-- DIS
     301     256.50802552     256.50897625      -3.706E-06    183.01    <-- DIS
     302     256.50558809     256.50654434      -3.728E-06    183.62    <-- DIS
     303     256.50318792     256.50414937      -3.748E-06    184.23    <-- DIS
     304     256.50082438     256.50179074      -3.767E-06    184.84    <-- DIS
     305     256.49849686     256.49946784      -3.786E-06    185.45    <-- DIS
     306     256.49620477     256.49718010      -3.803E-06    186.05    <-- DIS
     307     256.49394753     256.49492694      -3.818E-06    186.65    <-- DIS
     308     256.49172457     256.49270778      -3.833E-06    187.25    <-- DIS
     309     256.48953532     256.49052209      -3.847E-06    187.85    <-- DIS
     310     256.48737924     256.48836930      -3.860E-06    188.45    <-- DIS
     311     256.48525577     256.48624889      -3.872E-06    189.05    <-- DIS
     312     256.48316439     256.48416033      -3.883E-06    189.67    <-- DIS
     313     256.48110458     256.48210310      -3.893E-06    190.28    <-- DIS
     314     256.47907581     256.48007670      -3.902E-06    190.88    <-- DIS
     315     256.47707759     256.47808062      -3.911E-06    191.48    <-- DIS
     316     256.47510941     256.47611438      -3.918E-06    192.09    <-- DIS
     317     256.47317080     256.47417749      -3.925E-06    192.70    <-- DIS
     318     256.47126127     256.47226948      -3.931E-06    193.31    <-- DIS
     319     256.46938035     256.47038989      -3.936E-06    193.92    <-- DIS
     320     256.46752758     256.46853826      -3.941E-06    194.52    <-- DIS
     321     256.46570251     256.46671414      -3.945E-06    195.12    <-- DIS
     322     256.46390468     256.46491709      -3.948E-06    195.73    <-- DIS
     323     256.46213367     256.46314668      -3.950E-06    196.33    <-- DIS
     324     256.46038904     256.46140248      -3.952E-06    196.95    <-- DIS
     325     256.45867037     256.45968407      -3.953E-06    197.55    <-- DIS
     326     256.45697724     256.45799105      -3.953E-06    198.16    <-- DIS
     327     256.45530925     256.45632300      -3.953E-06    198.76    <-- DIS
     328     256.45366599     256.45467953      -3.952E-06    199.37    <-- DIS
     329     256.45204706     256.45306026      -3.951E-06    199.98    <-- DIS
     330     256.45045209     256.45146479      -3.949E-06    200.58    <-- DIS
     331     256.44888069     256.44989276      -3.946E-06    201.19    <-- DIS
     332     256.44733248     256.44834378      -3.944E-06    201.81    <-- DIS
     333     256.44580710     256.44681750      -3.940E-06    202.41    <-- DIS
     334     256.44430418     256.44531356      -3.936E-06    203.02    <-- DIS
     335     256.44282338     256.44383161      -3.932E-06    203.62    <-- DIS
     336     256.44136433     256.44237130      -3.927E-06    204.21    <-- DIS
     337     256.43992671     256.44093229      -3.921E-06    204.81    <-- DIS
     338     256.43851016     256.43951425      -3.916E-06    205.43    <-- DIS
     339     256.43711437     256.43811685      -3.909E-06    206.02    <-- DIS
     340     256.43573899     256.43673977      -3.903E-06    206.62    <-- DIS
     341     256.43438372     256.43538268      -3.896E-06    207.23    <-- DIS
     342     256.43304823     256.43404528      -3.888E-06    207.83    <-- DIS
     343     256.43173222     256.43272727      -3.880E-06    208.43    <-- DIS
     344     256.43043538     256.43142833      -3.872E-06    209.03    <-- DIS
     345     256.42915741     256.43014817      -3.864E-06    209.63    <-- DIS
     346     256.42789803     256.42888651      -3.855E-06    210.22    <-- DIS
     347     256.42665693     256.42764304      -3.846E-06    210.83    <-- DIS
     348     256.42543383     256.42641751      -3.836E-06    211.42    <-- DIS
     349     256.42422846     256.42520961      -3.826E-06    212.01    <-- DIS
     350     256.42304054     256.42401910      -3.816E-06    212.62    <-- DIS
     351     256.42186980     256.42284568      -3.806E-06    213.22    <-- DIS
     352     256.42071597     256.42168911      -3.795E-06    213.83    <-- DIS
     353     256.41957879     256.42054912      -3.784E-06    214.41    <-- DIS
     354     256.41845801     256.41942546      -3.773E-06    215.01    <-- DIS
     355     256.41735336     256.41831787      -3.761E-06    215.61    <-- DIS
     356     256.41626462     256.41722612      -3.750E-06    216.22    <-- DIS
     357     256.41519151     256.41614995      -3.738E-06    216.81    <-- DIS
     358     256.41413382     256.41508913      -3.726E-06    217.43    <-- DIS
     359     256.41309130     256.41404343      -3.713E-06    218.02    <-- DIS
     360     256.41206371     256.41301262      -3.701E-06    218.62    <-- DIS
     361     256.41105084     256.41199646      -3.688E-06    219.23    <-- DIS
     362     256.41005245     256.41099474      -3.675E-06    219.83    <-- DIS
     363     256.40906832     256.41000723      -3.662E-06    220.43    <-- DIS
     364     256.40809824     256.40903373      -3.648E-06    221.04    <-- DIS
     365     256.40714199     256.40807401      -3.635E-06    221.65    <-- DIS
     366     256.40619936     256.40712787      -3.621E-06    222.26    <-- DIS
     367     256.40527015     256.40619510      -3.607E-06    222.85    <-- DIS
     368     256.40435414     256.40527550      -3.593E-06    223.46    <-- DIS
     369     256.40345115     256.40436888      -3.579E-06    224.06    <-- DIS
     370     256.40256097     256.40347503      -3.565E-06    224.66    <-- DIS
     371     256.40168340     256.40259377      -3.551E-06    225.27    <-- DIS
     372     256.40081827     256.40172491      -3.536E-06    225.88    <-- DIS
     373     256.39996537     256.40086825      -3.521E-06    226.47    <-- DIS
     374     256.39912453     256.40002362      -3.507E-06    227.07    <-- DIS
     375     256.39829557     256.39919083      -3.492E-06    227.67    <-- DIS
     376     256.39747830     256.39836971      -3.477E-06    228.28    <-- DIS
     377     256.39667255     256.39756009      -3.462E-06    228.87    <-- DIS
     378     256.39587814     256.39676179      -3.446E-06    229.46    <-- DIS
     379     256.39509491     256.39597464      -3.431E-06    230.06    <-- DIS
     380     256.39432269     256.39519848      -3.416E-06    230.67    <-- DIS
     381     256.39356131     256.39443314      -3.400E-06    231.30    <-- DIS
     382     256.39281062     256.39367846      -3.385E-06    232.03    <-- DIS
     383     256.39207045     256.39293429      -3.369E-06    232.72    <-- DIS
     384     256.39134064     256.39220047      -3.354E-06    233.39    <-- DIS
     385     256.39062104     256.39147683      -3.338E-06    233.98    <-- DIS
     386     256.38991150     256.39076325      -3.322E-06    234.57    <-- DIS
     387     256.38921187     256.39005956      -3.306E-06    235.17    <-- DIS
     388     256.38852201     256.38936561      -3.290E-06    235.76    <-- DIS
     389     256.38784176     256.38868128      -3.274E-06    236.36    <-- DIS
     390     256.38717098     256.38800640      -3.258E-06    236.96    <-- DIS
     391     256.38650954     256.38734085      -3.242E-06    237.57    <-- DIS
     392     256.38585729     256.38668449      -3.226E-06    238.16    <-- DIS
     393     256.38521411     256.38603718      -3.210E-06    238.75    <-- DIS
     394     256.38457985     256.38539878      -3.194E-06    239.35    <-- DIS
     395     256.38395439     256.38476918      -3.178E-06    239.94    <-- DIS
     396     256.38333759     256.38414824      -3.162E-06    240.54    <-- DIS
     397     256.38272933     256.38353582      -3.146E-06    241.14    <-- DIS
     398     256.38212948     256.38293182      -3.129E-06    241.73    <-- DIS
     399     256.38153792     256.38233610      -3.113E-06    242.35    <-- DIS
     400     256.38095453     256.38174854      -3.097E-06    242.94    <-- DIS
     401     256.38037918     256.38116903      -3.081E-06    243.55    <-- DIS
     402     256.37981177     256.38059745      -3.065E-06    244.15    <-- DIS
     403     256.37925216     256.38003368      -3.048E-06    244.75    <-- DIS
     404     256.37870026     256.37947761      -3.032E-06    245.35    <-- DIS
     405     256.37815595     256.37892913      -3.016E-06    245.93    <-- DIS
     406     256.37761911     256.37838813      -3.000E-06    246.51    <-- DIS
     407     256.37708964     256.37785449      -2.983E-06    247.10    <-- DIS
     408     256.37656743     256.37732812      -2.967E-06    247.69    <-- DIS
     409     256.37605237     256.37680891      -2.951E-06    248.27    <-- DIS
     410     256.37554437     256.37629675      -2.935E-06    248.85    <-- DIS
     411     256.37504331     256.37579154      -2.918E-06    249.43    <-- DIS
     412     256.37454911     256.37529318      -2.902E-06    250.01    <-- DIS
     413     256.37406165     256.37480158      -2.886E-06    250.59    <-- DIS
     414     256.37358084     256.37431664      -2.870E-06    251.18    <-- DIS
     415     256.37310659     256.37383825      -2.854E-06    251.77    <-- DIS
     416     256.37263880     256.37336633      -2.838E-06    252.36    <-- DIS
     417     256.37217737     256.37290079      -2.822E-06    252.96    <-- DIS
     418     256.37172222     256.37244153      -2.806E-06    253.55    <-- DIS
     419     256.37127326     256.37198846      -2.790E-06    254.14    <-- DIS
     420     256.37083039     256.37154150      -2.774E-06    254.73    <-- DIS
     421     256.37039353     256.37110055      -2.758E-06    255.32    <-- DIS
     422     256.36996260     256.37066553      -2.742E-06    255.92    <-- DIS
     423     256.36953750     256.37023636      -2.726E-06    256.50    <-- DIS
     424     256.36911815     256.36981296      -2.710E-06    257.08    <-- DIS
     425     256.36870448     256.36939523      -2.694E-06    257.68    <-- DIS
     426     256.36829640     256.36898311      -2.679E-06    258.26    <-- DIS
     427     256.36789382     256.36857650      -2.663E-06    258.85    <-- DIS
     428     256.36749668     256.36817534      -2.647E-06    259.44    <-- DIS
     429     256.36710490     256.36777954      -2.632E-06    260.03    <-- DIS
     430     256.36671839     256.36738904      -2.616E-06    260.62    <-- DIS
     431     256.36633708     256.36700374      -2.600E-06    261.20    <-- DIS
     432     256.36596091     256.36662359      -2.585E-06    261.80    <-- DIS
     433     256.36558978     256.36624851      -2.569E-06    262.39    <-- DIS
     434     256.36522365     256.36587842      -2.554E-06    262.98    <-- DIS
     435     256.36486243     256.36551326      -2.539E-06    263.58    <-- DIS
     436     256.36450605     256.36515296      -2.523E-06    264.17    <-- DIS
     437     256.36415444     256.36479744      -2.508E-06    264.75    <-- DIS
     438     256.36380755     256.36444665      -2.493E-06    265.35    <-- DIS
     439     256.36346529     256.36410051      -2.478E-06    265.93    <-- DIS
     440     256.36312761     256.36375896      -2.463E-06    266.52    <-- DIS
     441     256.36279445     256.36342193      -2.448E-06    267.12    <-- DIS
     442     256.36246573     256.36308937      -2.433E-06    267.72    <-- DIS
     443     256.36214139     256.36276121      -2.418E-06    268.30    <-- DIS
     444     256.36182138     256.36243738      -2.403E-06    268.88    <-- DIS
     445     256.36150563     256.36211783      -2.388E-06    269.47    <-- DIS
     446     256.36119409     256.36180250      -2.373E-06    270.06    <-- DIS
     447     256.36088668     256.36149133      -2.359E-06    270.66    <-- DIS
     448     256.36058337     256.36118426      -2.344E-06    271.25    <-- DIS
     449     256.36028408     256.36088123      -2.329E-06    271.83    <-- DIS
     450     256.35998876     256.36058219      -2.315E-06    272.41    <-- DIS
     451     256.35969736     256.36028708      -2.300E-06    273.00    <-- DIS
     452     256.35940982     256.35999585      -2.286E-06    273.60    <-- DIS
     453     256.35912609     256.35970844      -2.272E-06    274.17    <-- DIS
     454     256.35884612     256.35942480      -2.257E-06    274.76    <-- DIS
     455     256.35856984     256.35914488      -2.243E-06    275.35    <-- DIS
     456     256.35829722     256.35886863      -2.229E-06    275.93    <-- DIS
     457     256.35802820     256.35859599      -2.215E-06    276.51    <-- DIS
     458     256.35776273     256.35832692      -2.201E-06    277.09    <-- DIS
     459     256.35750075     256.35806137      -2.187E-06    277.68    <-- DIS
     460     256.35724223     256.35779928      -2.173E-06    278.27    <-- DIS
     461     256.35698712     256.35754062      -2.159E-06    278.86    <-- DIS
     462     256.35673536     256.35728533      -2.145E-06    279.45    <-- DIS
     463     256.35648691     256.35703336      -2.132E-06    280.03    <-- DIS
     464     256.35624173     256.35678468      -2.118E-06    280.62    <-- DIS
     465     256.35599976     256.35653923      -2.104E-06    281.21    <-- DIS
     466     256.35576098     256.35629698      -2.091E-06    281.81    <-- DIS
     467     256.35552532     256.35605787      -2.077E-06    282.39    <-- DIS
     468     256.35529275     256.35582187      -2.064E-06    282.97    <-- DIS
     469     256.35506323     256.35558894      -2.051E-06    283.56    <-- DIS
     470     256.35483671     256.35535902      -2.037E-06    284.15    <-- DIS
     471     256.35461315     256.35513208      -2.024E-06    284.74    <-- DIS
     472     256.35439251     256.35490808      -2.011E-06    285.33    <-- DIS
     473     256.35417476     256.35468698      -1.998E-06    285.92    <-- DIS
     474     256.35395985     256.35446874      -1.985E-06    286.49    <-- DIS
     475     256.35374774     256.35425332      -1.972E-06    287.08    <-- DIS
     476     256.35353839     256.35404068      -1.959E-06    287.67    <-- DIS
     477     256.35333177     256.35383078      -1.947E-06    288.26    <-- DIS
     478     256.35312785     256.35362359      -1.934E-06    288.84    <-- DIS
     479     256.35292657     256.35341907      -1.921E-06    289.42    <-- DIS
     480     256.35272791     256.35321719      -1.909E-06    290.01    <-- DIS
     481     256.35253183     256.35301790      -1.896E-06    290.60    <-- DIS
     482     256.35233830     256.35282117      -1.884E-06    291.18    <-- DIS
     483     256.35214728     256.35262698      -1.871E-06    291.77    <-- DIS
     484     256.35195873     256.35243527      -1.859E-06    292.35    <-- DIS
     485     256.35177263     256.35224603      -1.847E-06    292.92    <-- DIS
     486     256.35158894     256.35205921      -1.834E-06    293.50    <-- DIS
     487     256.35140762     256.35187479      -1.822E-06    294.07    <-- DIS
     488     256.35122865     256.35169273      -1.810E-06    294.68    <-- DIS
     489     256.35105200     256.35151300      -1.798E-06    295.25    <-- DIS
     490     256.35087762     256.35133557      -1.786E-06    295.85    <-- DIS
     491     256.35070550     256.35116041      -1.775E-06    296.43    <-- DIS
     492     256.35053559     256.35098748      -1.763E-06    297.02    <-- DIS
     493     256.35036788     256.35081677      -1.751E-06    297.60    <-- DIS
     494     256.35020232     256.35064823      -1.739E-06    298.19    <-- DIS
     495     256.35003890     256.35048183      -1.728E-06    298.77    <-- DIS
     496     256.34987758     256.35031756      -1.716E-06    299.35    <-- DIS
     497     256.34971834     256.35015538      -1.705E-06    299.93    <-- DIS
     498     256.34956114     256.34999526      -1.693E-06    300.51    <-- DIS
     499     256.34940596     256.34983718      -1.682E-06    301.10    <-- DIS
     500     256.34925277     256.34968111      -1.671E-06    301.69    <-- DIS
     501     256.34910155     256.34952702      -1.660E-06    302.26    <-- DIS
     502     256.34895226     256.34937488      -1.649E-06    302.85    <-- DIS
     503     256.34880489     256.34922467      -1.638E-06    303.42    <-- DIS
     504     256.34865941     256.34907637      -1.627E-06    304.00    <-- DIS
     505     256.34851578     256.34892995      -1.616E-06    304.59    <-- DIS
     506     256.34837400     256.34878537      -1.605E-06    305.18    <-- DIS
     507     256.34823402     256.34864263      -1.594E-06    305.77    <-- DIS
     508     256.34809584     256.34850169      -1.583E-06    306.36    <-- DIS
     509     256.34795941     256.34836253      -1.573E-06    306.95    <-- DIS
     510     256.34782473     256.34822513      -1.562E-06    307.53    <-- DIS
     511     256.34769177     256.34808946      -1.551E-06    308.12    <-- DIS
     512     256.34756049     256.34795551      -1.541E-06    308.72    <-- DIS
     513     256.34743089     256.34782324      -1.531E-06    309.30    <-- DIS
     514     256.34730294     256.34769263      -1.520E-06    309.89    <-- DIS
     515     256.34717662     256.34756367      -1.510E-06    310.48    <-- DIS
     516     256.34705190     256.34743633      -1.500E-06    311.05    <-- DIS
     517     256.34692877     256.34731059      -1.489E-06    311.64    <-- DIS
     518     256.34680720     256.34718643      -1.479E-06    312.22    <-- DIS
     519     256.34668718     256.34706383      -1.469E-06    312.82    <-- DIS
     520     256.34656867     256.34694277      -1.459E-06    313.40    <-- DIS
     521     256.34645167     256.34682323      -1.449E-06    314.00    <-- DIS
     522     256.34633615     256.34670518      -1.440E-06    314.58    <-- DIS
     523     256.34622209     256.34658861      -1.430E-06    315.16    <-- DIS
     524     256.34610948     256.34647350      -1.420E-06    315.74    <-- DIS
     525     256.34599829     256.34635983      -1.410E-06    316.33    <-- DIS
     526     256.34588850     256.34624758      -1.401E-06    316.91    <-- DIS
     527     256.34578010     256.34613674      -1.391E-06    317.49    <-- DIS
     528     256.34567307     256.34602727      -1.382E-06    318.07    <-- DIS
     529     256.34556739     256.34591918      -1.372E-06    318.65    <-- DIS
     530     256.34546305     256.34581243      -1.363E-06    319.23    <-- DIS
     531     256.34536002     256.34570701      -1.354E-06    319.81    <-- DIS
     532     256.34525828     256.34560290      -1.344E-06    320.38    <-- DIS
     533     256.34515783     256.34550009      -1.335E-06    320.97    <-- DIS
     534     256.34505864     256.34539856      -1.326E-06    321.56    <-- DIS
     535     256.34496069     256.34529829      -1.317E-06    322.15    <-- DIS
     536     256.34486398     256.34519926      -1.308E-06    322.73    <-- DIS
     537     256.34476849     256.34510147      -1.299E-06    323.31    <-- DIS
     538     256.34467419     256.34500489      -1.290E-06    323.91    <-- DIS
     539     256.34458107     256.34490950      -1.281E-06    324.49    <-- DIS
     540     256.34448912     256.34481530      -1.272E-06    325.09    <-- DIS
     541     256.34439833     256.34472227      -1.264E-06    325.68    <-- DIS
     542     256.34430867     256.34463038      -1.255E-06    326.27    <-- DIS
     543     256.34422014     256.34453964      -1.246E-06    326.85    <-- DIS
     544     256.34413271     256.34445001      -1.238E-06    327.44    <-- DIS
     545     256.34404637     256.34436150      -1.229E-06    328.02    <-- DIS
     546     256.34396112     256.34427407      -1.221E-06    328.60    <-- DIS
     547     256.34387693     256.34418773      -1.212E-06    329.20    <-- DIS
     548     256.34379379     256.34410245      -1.204E-06    329.79    <-- DIS
     549     256.34371169     256.34401822      -1.196E-06    330.38    <-- DIS
     550     256.34363061     256.34393503      -1.188E-06    330.96    <-- DIS
     551     256.34355054     256.34385287      -1.179E-06    331.55    <-- DIS
     552     256.34347147     256.34377172      -1.171E-06    332.14    <-- DIS
     553     256.34339339     256.34369156      -1.163E-06    332.72    <-- DIS
     554     256.34331627     256.34361239      -1.155E-06    333.31    <-- DIS
     555     256.34324012     256.34353419      -1.147E-06    333.88    <-- DIS
     556     256.34316491     256.34345696      -1.139E-06    334.46    <-- DIS
     557     256.34309064     256.34338067      -1.131E-06    335.05    <-- DIS
     558     256.34301729     256.34330531      -1.124E-06    335.65    <-- DIS
     559     256.34294485     256.34323088      -1.116E-06    336.23    <-- DIS
     560     256.34287331     256.34315736      -1.108E-06    336.82    <-- DIS
     561     256.34280265     256.34308475      -1.100E-06    337.40    <-- DIS
     562     256.34273287     256.34301302      -1.093E-06    338.00    <-- DIS
     563     256.34266396     256.34294217      -1.085E-06    338.59    <-- DIS
     564     256.34259590     256.34287218      -1.078E-06    339.18    <-- DIS
     565     256.34252868     256.34280305      -1.070E-06    339.77    <-- DIS
     566     256.34246229     256.34273476      -1.063E-06    340.37    <-- DIS
     567     256.34239672     256.34266731      -1.056E-06    340.95    <-- DIS
     568     256.34233197     256.34260068      -1.048E-06    341.53    <-- DIS
     569     256.34226801     256.34253486      -1.041E-06    342.12    <-- DIS
     570     256.34220484     256.34246984      -1.034E-06    342.71    <-- DIS
     571     256.34214245     256.34240562      -1.027E-06    343.30    <-- DIS
     572     256.34208083     256.34234218      -1.020E-06    343.87    <-- DIS
     573     256.34201997     256.34227950      -1.012E-06    344.46    <-- DIS
     574     256.34195986     256.34221759      -1.005E-06    345.05    <-- DIS
     575     256.34190049     256.34215644      -9.985E-07    345.65    <-- DIS
     576     256.34184185     256.34209602      -9.915E-07    346.24    <-- DIS
     577     256.34178393     256.34203634      -9.846E-07    346.82    <-- DIS
     578     256.34172673     256.34197738      -9.778E-07    347.41    <-- DIS
     579     256.34167022     256.34191914      -9.710E-07    348.01    <-- DIS
     580     256.34161441     256.34186160      -9.643E-07    348.60    <-- DIS
     581     256.34155929     256.34180476      -9.576E-07    349.20    <-- DIS
     582     256.34150484     256.34174861      -9.510E-07    349.80    <-- DIS
     583     256.34145106     256.34169313      -9.443E-07    350.39    <-- DIS
     584     256.34139794     256.34163833      -9.378E-07    350.99    <-- DIS
     585     256.34134547     256.34158419      -9.313E-07    351.60    <-- DIS
     586     256.34129364     256.34153070      -9.248E-07    352.20    <-- DIS
     587     256.34124244     256.34147786      -9.184E-07    352.78    <-- DIS
     588     256.34119188     256.34142566      -9.120E-07    353.37    <-- DIS
     589     256.34114193     256.34137409      -9.057E-07    353.97    <-- DIS
     590     256.34109259     256.34132313      -8.994E-07    354.57    <-- DIS
     591     256.34104385     256.34127279      -8.931E-07    355.16    <-- DIS
     592     256.34099571     256.34122306      -8.869E-07    355.76    <-- DIS
     593     256.34094816     256.34117393      -8.807E-07    356.35    <-- DIS
     594     256.34090118     256.34112538      -8.746E-07    356.94    <-- DIS
     595     256.34085478     256.34107742      -8.685E-07    357.53    <-- DIS
     596     256.34080894     256.34103004      -8.625E-07    358.13    <-- DIS
     597     256.34076367     256.34098322      -8.565E-07    358.72    <-- DIS
     598     256.34071894     256.34093697      -8.505E-07    359.31    <-- DIS
     599     256.34067476     256.34089127      -8.446E-07    359.90    <-- DIS
     600     256.34063111     256.34084612      -8.387E-07    360.50    <-- DIS
     601     256.34058800     256.34080151      -8.329E-07    361.08    <-- DIS
     602     256.34054541     256.34075743      -8.271E-07    361.68    <-- DIS
     603     256.34050334     256.34071389      -8.214E-07    362.27    <-- DIS
     604     256.34046178     256.34067086      -8.156E-07    362.87    <-- DIS
     605     256.34042072     256.34062835      -8.100E-07    363.46    <-- DIS
     606     256.34038016     256.34058634      -8.043E-07    364.05    <-- DIS
     607     256.34034009     256.34054484      -7.987E-07    364.65    <-- DIS
     608     256.34030051     256.34050383      -7.932E-07    365.24    <-- DIS
     609     256.34026141     256.34046331      -7.877E-07    365.85    <-- DIS
     610     256.34022278     256.34042328      -7.822E-07    366.43    <-- DIS
     611     256.34018461     256.34038372      -7.767E-07    367.04    <-- DIS
     612     256.34014691     256.34034463      -7.713E-07    367.64    <-- DIS
     613     256.34010967     256.34030601      -7.659E-07    368.23    <-- DIS
     614     256.34007287     256.34026785      -7.606E-07    368.82    <-- DIS
     615     256.34003652     256.34023014      -7.553E-07    369.42    <-- DIS
     616     256.34000061     256.34019288      -7.501E-07    370.01    <-- DIS
     617     256.33996514     256.34015607      -7.448E-07    370.60    <-- DIS
     618     256.33993009     256.34011969      -7.397E-07    371.19    <-- DIS
     619     256.33989546     256.34008374      -7.345E-07    371.80    <-- DIS
     620     256.33986125     256.34004822      -7.294E-07    372.41    <-- DIS
     621     256.33982745     256.34001312      -7.243E-07    373.01    <-- DIS
     622     256.33979406     256.33997843      -7.193E-07    373.61    <-- DIS
     623     256.33976107     256.33994416      -7.143E-07    374.22    <-- DIS
     624     256.33972848     256.33991029      -7.093E-07    374.81    <-- DIS
     625     256.33969628     256.33987683      -7.043E-07    375.41    <-- DIS
     626     256.33966446     256.33984376      -6.994E-07    376.00    <-- DIS
     627     256.33963303     256.33981108      -6.946E-07    376.59    <-- DIS
     628     256.33960198     256.33977879      -6.897E-07    377.19    <-- DIS
     629     256.33957130     256.33974687      -6.849E-07    377.79    <-- DIS
     630     256.33954099     256.33971534      -6.802E-07    378.38    <-- DIS
     631     256.33951104     256.33968417      -6.754E-07    378.97    <-- DIS
     632     256.33948145     256.33965338      -6.707E-07    379.56    <-- DIS
     633     256.33945221     256.33962295      -6.661E-07    380.18    <-- DIS
     634     256.33942332     256.33959287      -6.614E-07    380.77    <-- DIS
     635     256.33939479     256.33956315      -6.568E-07    381.37    <-- DIS
     636     256.33936659     256.33953378      -6.522E-07    381.96    <-- DIS
     637     256.33933873     256.33950476      -6.477E-07    382.55    <-- DIS
     638     256.33931120     256.33947607      -6.432E-07    383.16    <-- DIS
     639     256.33928400     256.33944773      -6.387E-07    383.74    <-- DIS
     640     256.33925713     256.33941971      -6.343E-07    384.32    <-- DIS
     641     256.33923057     256.33939203      -6.299E-07    384.92    <-- DIS
     642     256.33920434     256.33936467      -6.255E-07    385.51    <-- DIS
     643     256.33917841     256.33933763      -6.211E-07    386.10    <-- DIS
     644     256.33915280     256.33931091      -6.168E-07    386.70    <-- DIS
     645     256.33912749     256.33928450      -6.125E-07    387.29    <-- DIS
     646     256.33910249     256.33925840      -6.082E-07    387.87    <-- DIS
     647     256.33907778     256.33923261      -6.040E-07    388.46    <-- DIS
     648     256.33905336     256.33920711      -5.998E-07    389.05    <-- DIS
     649     256.33902924     256.33918192      -5.956E-07    389.65    <-- DIS
     650     256.33900540     256.33915702      -5.915E-07    390.25    <-- DIS
     651     256.33898185     256.33913241      -5.874E-07    390.85    <-- DIS
     652     256.33895857     256.33910809      -5.833E-07    391.44    <-- DIS
     653     256.33893557     256.33908405      -5.792E-07    392.05    <-- DIS
     654     256.33891285     256.33906030      -5.752E-07    392.64    <-- DIS
     655     256.33889040     256.33903682      -5.712E-07    393.24    <-- DIS
     656     256.33886821     256.33901361      -5.672E-07    393.83    <-- DIS
     657     256.33884628     256.33899068      -5.633E-07    394.43    <-- DIS
     658     256.33882462     256.33896801      -5.594E-07    395.03    <-- DIS
     659     256.33880321     256.33894560      -5.555E-07    395.63    <-- DIS
     660     256.33878206     256.33892346      -5.516E-07    396.23    <-- DIS
     661     256.33876115     256.33890157      -5.478E-07    396.82    <-- DIS
     662     256.33874049     256.33887994      -5.440E-07    397.41    <-- DIS
     663     256.33872008     256.33885856      -5.402E-07    398.02    <-- DIS
     664     256.33869991     256.33883742      -5.364E-07    398.61    <-- DIS
     665     256.33867998     256.33881653      -5.327E-07    399.21    <-- DIS
     666     256.33866028     256.33879589      -5.290E-07    399.81    <-- DIS
     667     256.33864082     256.33877548      -5.253E-07    400.40    <-- DIS
     668     256.33862158     256.33875531      -5.217E-07    401.00    <-- DIS
     669     256.33860258     256.33873538      -5.181E-07    401.61    <-- DIS
     670     256.33858379     256.33871567      -5.145E-07    402.21    <-- DIS
     671     256.33856523     256.33869619      -5.109E-07    402.82    <-- DIS
     672     256.33854689     256.33867694      -5.074E-07    403.42    <-- DIS
     673     256.33852876     256.33865791      -5.038E-07    404.03    <-- DIS
     674     256.33851085     256.33863910      -5.003E-07    404.64    <-- DIS
     675     256.33849315     256.33862051      -4.969E-07    405.23    <-- DIS
     676     256.33847565     256.33860213      -4.934E-07    405.82    <-- DIS
     677     256.33845836     256.33858397      -4.900E-07    406.41    <-- DIS
     678     256.33844128     256.33856601      -4.866E-07    407.02    <-- DIS
     679     256.33842440     256.33854826      -4.832E-07    407.61    <-- DIS
     680     256.33840771     256.33853072      -4.799E-07    408.21    <-- DIS
     681     256.33839122     256.33851337      -4.765E-07    408.81    <-- DIS
     682     256.33837492     256.33849623      -4.732E-07    409.41    <-- DIS
     683     256.33835882     256.33847928      -4.699E-07    410.02    <-- DIS
     684     256.33834290     256.33846253      -4.667E-07    410.63    <-- DIS
     685     256.33832718     256.33844598      -4.634E-07    411.23    <-- DIS
     686     256.33831163     256.33842961      -4.602E-07    411.85    <-- DIS
     687     256.33829627     256.33841343      -4.570E-07    412.47    <-- DIS
     688     256.33828109     256.33839743      -4.539E-07    413.07    <-- DIS
     689     256.33826608     256.33838162      -4.507E-07    413.67    <-- DIS
     690     256.33825125     256.33836599      -4.476E-07    414.28    <-- DIS
     691     256.33823660     256.33835054      -4.445E-07    414.88    <-- DIS
     692     256.33822211     256.33833527      -4.414E-07    415.50    <-- DIS
     693     256.33820780     256.33832017      -4.384E-07    416.11    <-- DIS
     694     256.33819365     256.33830524      -4.353E-07    416.70    <-- DIS
     695     256.33817967     256.33829049      -4.323E-07    417.30    <-- DIS
     696     256.33816585     256.33827590      -4.293E-07    417.91    <-- DIS
     697     256.33815219     256.33826148      -4.264E-07    418.50    <-- DIS
     698     256.33813869     256.33824723      -4.234E-07    419.10    <-- DIS
     699     256.33812535     256.33823314      -4.205E-07    419.70    <-- DIS
     700     256.33811217     256.33821921      -4.176E-07    420.30    <-- DIS
     701     256.33809913     256.33820543      -4.147E-07    420.93    <-- DIS
     702     256.33808625     256.33819182      -4.118E-07    421.52    <-- DIS
     703     256.33807352     256.33817836      -4.090E-07    422.12    <-- DIS
     704     256.33806094     256.33816505      -4.061E-07    422.72    <-- DIS
     705     256.33804851     256.33815190      -4.033E-07    423.32    <-- DIS
     706     256.33803622     256.33813889      -4.005E-07    423.92    <-- DIS
     707     256.33802407     256.33812603      -3.978E-07    424.51    <-- DIS
     708     256.33801206     256.33811332      -3.950E-07    425.12    <-- DIS
     709     256.33800020     256.33810076      -3.923E-07    425.73    <-- DIS
     710     256.33798847     256.33808833      -3.896E-07    426.35    <-- DIS
     711     256.33797687     256.33807605      -3.869E-07    426.95    <-- DIS
     712     256.33796542     256.33806391      -3.842E-07    427.56    <-- DIS
     713     256.33795409     256.33805190      -3.816E-07    428.18    <-- DIS
     714     256.33794290     256.33804003      -3.789E-07    428.78    <-- DIS
     715     256.33793183     256.33802830      -3.763E-07    429.38    <-- DIS
     716     256.33792090     256.33801670      -3.737E-07    430.00    <-- DIS
     717     256.33791009     256.33800523      -3.711E-07    430.61    <-- DIS
     718     256.33789940     256.33799388      -3.686E-07    431.21    <-- DIS
     719     256.33788884     256.33798267      -3.660E-07    431.83    <-- DIS
     720     256.33787840     256.33797159      -3.635E-07    432.43    <-- DIS
     721     256.33786809     256.33796063      -3.610E-07    433.02    <-- DIS
     722     256.33785789     256.33794979      -3.585E-07    433.62    <-- DIS
     723     256.33784781     256.33793908      -3.561E-07    434.22    <-- DIS
     724     256.33783784     256.33792848      -3.536E-07    434.83    <-- DIS
     725     256.33782799     256.33791801      -3.512E-07    435.40    <-- DIS
     726     256.33781826     256.33790766      -3.487E-07    436.01    <-- DIS
     727     256.33780864     256.33789742      -3.463E-07    436.63    <-- DIS
     728     256.33779913     256.33788729      -3.440E-07    437.22    <-- DIS
     729     256.33778972     256.33787728      -3.416E-07    437.83    <-- DIS
     730     256.33778043     256.33786739      -3.392E-07    438.42    <-- DIS
     731     256.33777124     256.33785760      -3.369E-07    439.03    <-- DIS
     732     256.33776216     256.33784793      -3.346E-07    439.63    <-- DIS
     733     256.33775319     256.33783836      -3.323E-07    440.24    <-- DIS
     734     256.33774431     256.33782890      -3.300E-07    440.83    <-- DIS
     735     256.33773554     256.33781955      -3.277E-07    441.45    <-- DIS
     736     256.33772687     256.33781030      -3.255E-07    442.05    <-- DIS
     737     256.33771830     256.33780116      -3.232E-07    442.65    <-- DIS
     738     256.33770983     256.33779212      -3.210E-07    443.25    <-- DIS
     739     256.33770146     256.33778318      -3.188E-07    443.85    <-- DIS
     740     256.33769318     256.33777434      -3.166E-07    444.45    <-- DIS
     741     256.33768500     256.33776560      -3.144E-07    445.05    <-- DIS
     742     256.33767691     256.33775696      -3.123E-07    445.64    <-- DIS
     743     256.33766891     256.33774841      -3.101E-07    446.24    <-- DIS
     744     256.33766101     256.33773996      -3.080E-07    446.85    <-- DIS
     745     256.33765320     256.33773161      -3.059E-07    447.45    <-- DIS
     746     256.33764547     256.33772334      -3.038E-07    448.06    <-- DIS
     747     256.33763784     256.33771517      -3.017E-07    448.66    <-- DIS
     748     256.33763029     256.33770709      -2.996E-07    449.26    <-- DIS
     749     256.33762283     256.33769911      -2.976E-07    449.86    <-- DIS
     750     256.33761545     256.33769121      -2.955E-07    450.46    <-- DIS
     751     256.33760816     256.33768340      -2.935E-07    451.07    <-- DIS
     752     256.33760095     256.33767567      -2.915E-07    451.67    <-- DIS
[...]
  WF centre and spread   63  (  0.000001, -0.173007, 28.669777 )     3.28901238
  WF centre and spread   64  ( -0.000001, -0.133497, 28.723224 )     2.98230503
  WF centre and spread   65  ( -0.000001,  0.177854, 28.669052 )     3.28903257
  WF centre and spread   66  (  0.000001,  0.136098, 28.723607 )     2.98360350
  WF centre and spread   67  ( -0.000000, -0.000730, 69.746390 )     3.06727483
  WF centre and spread   68  ( -0.000000, -0.002657, 69.708022 )     3.23456665
  WF centre and spread   69  ( -0.000000, -0.133723, 69.669284 )     2.98455251
  WF centre and spread   70  (  0.000000, -0.174352, 69.613850 )     3.29503806
  WF centre and spread   71  (  0.000000,  0.136637, 69.668890 )     2.98562497
  WF centre and spread   72  ( -0.000001,  0.179138, 69.613523 )     3.29424641
  WF centre and spread   73  ( -0.000000, -0.000008,  0.000850 )     0.64080713
  WF centre and spread   74  ( -0.000000, -0.000013,  0.002381 )     1.24558458
  WF centre and spread   75  ( -0.000000,  0.000209, -0.000262 )     0.66711150
  WF centre and spread   76  (  0.000000,  0.000602, -0.000743 )     1.05982668
  WF centre and spread   77  (  0.000000, -0.000208, -0.000275 )     0.66592571
  WF centre and spread   78  ( -0.000000, -0.000642, -0.000661 )     1.05742766
  WF centre and spread   79  (  0.000000,  0.000648,  0.000262 )     0.66481484
  WF centre and spread   80  (  0.000000,  0.002072,  0.000921 )     1.22585807
  WF centre and spread   81  (  0.000000, -0.000639,  0.000280 )     0.66464235
  WF centre and spread   82  (  0.000000, -0.001983,  0.000989 )     1.22625399
  WF centre and spread   83  ( -0.000000,  0.000007, 40.923627 )     1.24599888
  WF centre and spread   84  (  0.000000,  0.000008, 40.925150 )     0.64082499
  WF centre and spread   85  (  0.000000, -0.000607, 40.926600 )     1.05960189
  WF centre and spread   86  (  0.000000, -0.000206, 40.926292 )     0.66724239
  WF centre and spread   87  (  0.000000,  0.000688, 40.926801 )     1.05952230
  WF centre and spread   88  (  0.000000,  0.000245, 40.926261 )     0.66577288
  WF centre and spread   89  (  0.000000, -0.001898, 40.925034 )     1.22663665
  WF centre and spread   90  ( -0.000000, -0.000639, 40.925725 )     0.66468423
  WF centre and spread   91  (  0.000000,  0.002127, 40.925066 )     1.22649054
  WF centre and spread   92  (  0.000000,  0.000681, 40.925737 )     0.66484836
  Sum of centres and spreads (  0.000004, -0.007171,********** )   268.54772815
 
     99    -0.227E-02     0.1516020081      268.5477289315    1294.19  <-- CONV
        O_D=      0.5299891 O_OD=     11.6807798 O_TOT=    268.5477289 <-- SPRD
 Delta: O_D= -0.2882475E-04 O_OD= -0.2237684E-02 O_TOT= -0.2266509E-02 <-- DLTA
 ------------------------------------------------------------------------------
 Cycle:    100
  WF centre and spread    1  ( -0.000000, -0.000411, 17.270499 )     4.14930345
  WF centre and spread    2  (  0.000000, -0.000652, 17.175554 )     4.72330725
  WF centre and spread    3  (  0.000001, -0.064414, 17.321186 )     3.85133410
  WF centre and spread    4  ( -0.000001, -0.092956, 17.264457 )     4.27659505
  WF centre and spread    5  (  0.000000,  0.066694, 17.322837 )     3.85636641
  WF centre and spread    6  ( -0.000001,  0.093548, 17.265004 )     4.26642573
  WF centre and spread    7  (  0.000001, -0.001478, 58.102515 )     4.74103072
  WF centre and spread    8  ( -0.000001,  0.000072, 58.198020 )     4.15690096
  WF centre and spread    9  (  0.000000, -0.092564, 58.191468 )     4.28660425
  WF centre and spread   10  (  0.000000, -0.065302, 58.248340 )     3.85469629
  WF centre and spread   11  ( -0.000000,  0.095013, 58.192983 )     4.26724501
  WF centre and spread   12  (  0.000000,  0.065269, 58.248889 )     3.86400750
  WF centre and spread   13  ( -0.000000,  0.001811, 23.750952 )     4.73048571
  WF centre and spread   14  (  0.000000,  0.000001, 23.655821 )     4.15163479
  WF centre and spread   15  ( -0.000001,  0.091495, 23.660622 )     4.26753013
  WF centre and spread   16  (  0.000001,  0.064522, 23.603797 )     3.86093850
  WF centre and spread   17  ( -0.000000, -0.095659, 23.662471 )     4.27891640
  WF centre and spread   18  (  0.000000, -0.064779, 23.604666 )     3.85249900
  WF centre and spread   19  ( -0.000000,  0.000842, 64.579881 )     4.15350255
  WF centre and spread   20  (  0.000000,  0.000853, 64.674848 )     4.73853926
  WF centre and spread   21  (  0.000001,  0.064867, 64.528829 )     3.85805703
  WF centre and spread   22  (  0.000000,  0.091847, 64.585225 )     4.26768528
  WF centre and spread   23  ( -0.000000, -0.066578, 64.528961 )     3.85481691
  WF centre and spread   24  (  0.000000, -0.093978, 64.586219 )     4.28264077
  WF centre and spread   25  (  0.000000,  0.000105,  5.454956 )     3.21348763
  WF centre and spread   26  (  0.000000, -0.000490,  5.488486 )     3.09373166
  WF centre and spread   27  (  0.000000,  0.022830,  5.429219 )     3.17256362
  WF centre and spread   28  ( -0.000000,  0.039299,  5.454668 )     2.97427205
  WF centre and spread   29  ( -0.000000, -0.024059,  5.426191 )     3.17806618
  WF centre and spread   30  ( -0.000000, -0.040305,  5.456320 )     2.97007059
  WF centre and spread   31  (  0.000000, -0.000239, 46.412319 )     3.08749353
  WF centre and spread   32  ( -0.000000, -0.000023, 46.380589 )     3.20573680
  WF centre and spread   33  (  0.000000,  0.038902, 46.382981 )     2.96166603
  WF centre and spread   34  (  0.000000,  0.022622, 46.353231 )     3.16259493
  WF centre and spread   35  (  0.000000, -0.039022, 46.382319 )     2.96025357
  WF centre and spread   36  ( -0.000000, -0.024742, 46.352787 )     3.15932159
  WF centre and spread   37  (  0.000000,  0.000789, 35.437511 )     3.09269758
  WF centre and spread   38  ( -0.000000, -0.000629, 35.470885 )     3.21247041
  WF centre and spread   39  (  0.000000, -0.040298, 35.469897 )     2.96869275
  WF centre and spread   40  (  0.000000, -0.022428, 35.499008 )     3.17790968
  WF centre and spread   41  (  0.000000,  0.039913, 35.470220 )     2.97286642
  WF centre and spread   42  (  0.000000,  0.022951, 35.497071 )     3.17126368
  WF centre and spread   43  ( -0.000000,  0.000832, 76.397506 )     3.20665655
  WF centre and spread   44  (  0.000000, -0.001562, 76.365761 )     3.08825721
  WF centre and spread   45  ( -0.000000, -0.023172, 76.426300 )     3.16242945
  WF centre and spread   46  (  0.000000, -0.038285, 76.395264 )     2.96138386
  WF centre and spread   47  ( -0.000000,  0.021076, 76.424445 )     3.16316059
  WF centre and spread   48  (  0.000000,  0.040155, 76.396009 )     2.96267566
  WF centre and spread   49  (  0.000001,  0.001487, 12.124331 )     3.06639439
  WF centre and spread   50  ( -0.000000,  0.002237, 12.162496 )     3.23824842
  WF centre and spread   51  ( -0.000001,  0.133275, 12.202129 )     2.98285314
  WF centre and spread   52  (  0.000001,  0.173451, 12.257044 )     3.29041146
  WF centre and spread   53  (  0.000001, -0.136300, 12.202699 )     2.98175764
  WF centre and spread   54  ( -0.000000, -0.177830, 12.256179 )     3.28868194
  WF centre and spread   55  (  0.000000,  0.002047, 53.070183 )     3.23546396
  WF centre and spread   56  (  0.000000,  0.001415, 53.031441 )     3.06844397
  WF centre and spread   57  ( -0.000000,  0.174431, 53.164539 )     3.29583272
  WF centre and spread   58  (  0.000000,  0.134013, 53.109282 )     2.98721113
  WF centre and spread   59  (  0.000000, -0.179845, 53.164416 )     3.29702169
  WF centre and spread   60  (  0.000000, -0.136749, 53.108779 )     2.98431589
  WF centre and spread   61  ( -0.000000, -0.002344, 28.763470 )     3.23952666
  WF centre and spread   62  (  0.000000, -0.000987, 28.801495 )     3.06707073
  WF centre and spread   63  (  0.000001, -0.173036, 28.669742 )     3.28966668
  WF centre and spread   64  ( -0.000001, -0.133519, 28.723191 )     2.98255761
  WF centre and spread   65  ( -0.000001,  0.177913, 28.669017 )     3.28969019
  WF centre and spread   66  (  0.000001,  0.136132, 28.723574 )     2.98385815
  WF centre and spread   67  ( -0.000000, -0.000745, 69.746417 )     3.06751500
  WF centre and spread   68  ( -0.000000, -0.002686, 69.708047 )     3.23493403
  WF centre and spread   69  ( -0.000000, -0.133745, 69.669252 )     2.98481951
  WF centre and spread   70  (  0.000000, -0.174382, 69.613814 )     3.29571875
  WF centre and spread   71  (  0.000000,  0.136672, 69.668858 )     2.98589559
  WF centre and spread   72  ( -0.000001,  0.179199, 69.613487 )     3.29493084
  WF centre and spread   73  ( -0.000000, -0.000008,  0.000851 )     0.64081214
  WF centre and spread   74  ( -0.000000, -0.000013,  0.002384 )     1.24552494
  WF centre and spread   75  ( -0.000000,  0.000209, -0.000263 )     0.66730554
  WF centre and spread   76  (  0.000000,  0.000603, -0.000744 )     1.06001060
  WF centre and spread   77  (  0.000000, -0.000209, -0.000275 )     0.66611431
  WF centre and spread   78  ( -0.000000, -0.000642, -0.000662 )     1.05760630
  WF centre and spread   79  (  0.000000,  0.000649,  0.000263 )     0.66493329
  WF centre and spread   80  (  0.000000,  0.002074,  0.000922 )     1.22593782
  WF centre and spread   81  (  0.000000, -0.000640,  0.000280 )     0.66476001
  WF centre and spread   82  (  0.000000, -0.001985,  0.000990 )     1.22633533
  WF centre and spread   83  ( -0.000000,  0.000007, 40.923624 )     1.24593940
  WF centre and spread   84  (  0.000000,  0.000008, 40.925149 )     0.64083002
  WF centre and spread   85  (  0.000000, -0.000608, 40.926601 )     1.05978579
  WF centre and spread   86  (  0.000000, -0.000206, 40.926293 )     0.66743701
  WF centre and spread   87  (  0.000000,  0.000688, 40.926802 )     1.05970145
  WF centre and spread   88  (  0.000000,  0.000245, 40.926262 )     0.66596095
  WF centre and spread   89  (  0.000000, -0.001900, 40.925033 )     1.22671708
  WF centre and spread   90  ( -0.000000, -0.000640, 40.925725 )     0.66480228
  WF centre and spread   91  (  0.000000,  0.002129, 40.925065 )     1.22657107
  WF centre and spread   92  (  0.000000,  0.000682, 40.925737 )     0.66496641
  Sum of centres and spreads (  0.000004, -0.007170,********** )   268.54565695
 
    100    -0.207E-02     0.1456925795      268.5456577329    1294.60  <-- CONV
        O_D=      0.5300421 O_OD=     11.6786556 O_TOT=    268.5456577 <-- SPRD
 Delta: O_D=  0.5302896E-04 O_OD= -0.2124228E-02 O_TOT= -0.2071199E-02 <-- DLTA
 ------------------------------------------------------------------------------

 Writing checkpoint file MnBi2Te4.chk... done

 Final State
  WF centre and spread    1  ( -0.000000, -0.000411, 17.270499 )     4.14930345
  WF centre and spread    2  (  0.000000, -0.000652, 17.175554 )     4.72330725
  WF centre and spread    3  (  0.000001, -0.064414, 17.321186 )     3.85133410
  WF centre and spread    4  ( -0.000001, -0.092956, 17.264457 )     4.27659505
  WF centre and spread    5  (  0.000000,  0.066694, 17.322837 )     3.85636641
  WF centre and spread    6  ( -0.000001,  0.093548, 17.265004 )     4.26642573
  WF centre and spread    7  (  0.000001, -0.001478, 58.102515 )     4.74103072
  WF centre and spread    8  ( -0.000001,  0.000072, 58.198020 )     4.15690096
  WF centre and spread    9  (  0.000000, -0.092564, 58.191468 )     4.28660425
  WF centre and spread   10  (  0.000000, -0.065302, 58.248340 )     3.85469629
  WF centre and spread   11  ( -0.000000,  0.095013, 58.192983 )     4.26724501
  WF centre and spread   12  (  0.000000,  0.065269, 58.248889 )     3.86400750
  WF centre and spread   13  ( -0.000000,  0.001811, 23.750952 )     4.73048571
  WF centre and spread   14  (  0.000000,  0.000001, 23.655821 )     4.15163479
  WF centre and spread   15  ( -0.000001,  0.091495, 23.660622 )     4.26753013
  WF centre and spread   16  (  0.000001,  0.064522, 23.603797 )     3.86093850
  WF centre and spread   17  ( -0.000000, -0.095659, 23.662471 )     4.27891640
  WF centre and spread   18  (  0.000000, -0.064779, 23.604666 )     3.85249900
  WF centre and spread   19  ( -0.000000,  0.000842, 64.579881 )     4.15350255
  WF centre and spread   20  (  0.000000,  0.000853, 64.674848 )     4.73853926
  WF centre and spread   21  (  0.000001,  0.064867, 64.528829 )     3.85805703
  WF centre and spread   22  (  0.000000,  0.091847, 64.585225 )     4.26768528
  WF centre and spread   23  ( -0.000000, -0.066578, 64.528961 )     3.85481691
  WF centre and spread   24  (  0.000000, -0.093978, 64.586219 )     4.28264077
  WF centre and spread   25  (  0.000000,  0.000105,  5.454956 )     3.21348763
  WF centre and spread   26  (  0.000000, -0.000490,  5.488486 )     3.09373166
  WF centre and spread   27  (  0.000000,  0.022830,  5.429219 )     3.17256362
  WF centre and spread   28  ( -0.000000,  0.039299,  5.454668 )     2.97427205
  WF centre and spread   29  ( -0.000000, -0.024059,  5.426191 )     3.17806618
  WF centre and spread   30  ( -0.000000, -0.040305,  5.456320 )     2.97007059
  WF centre and spread   31  (  0.000000, -0.000239, 46.412319 )     3.08749353
  WF centre and spread   32  ( -0.000000, -0.000023, 46.380589 )     3.20573680
  WF centre and spread   33  (  0.000000,  0.038902, 46.382981 )     2.96166603
  WF centre and spread   34  (  0.000000,  0.022622, 46.353231 )     3.16259493
  WF centre and spread   35  (  0.000000, -0.039022, 46.382319 )     2.96025357
  WF centre and spread   36  ( -0.000000, -0.024742, 46.352787 )     3.15932159
  WF centre and spread   37  (  0.000000,  0.000789, 35.437511 )     3.09269758
  WF centre and spread   38  ( -0.000000, -0.000629, 35.470885 )     3.21247041
  WF centre and spread   39  (  0.000000, -0.040298, 35.469897 )     2.96869275
  WF centre and spread   40  (  0.000000, -0.022428, 35.499008 )     3.17790968
  WF centre and spread   41  (  0.000000,  0.039913, 35.470220 )     2.97286642
  WF centre and spread   42  (  0.000000,  0.022951, 35.497071 )     3.17126368
  WF centre and spread   43  ( -0.000000,  0.000832, 76.397506 )     3.20665655
  WF centre and spread   44  (  0.000000, -0.001562, 76.365761 )     3.08825721
  WF centre and spread   45  ( -0.000000, -0.023172, 76.426300 )     3.16242945
  WF centre and spread   46  (  0.000000, -0.038285, 76.395264 )     2.96138386
  WF centre and spread   47  ( -0.000000,  0.021076, 76.424445 )     3.16316059
  WF centre and spread   48  (  0.000000,  0.040155, 76.396009 )     2.96267566
  WF centre and spread   49  (  0.000001,  0.001487, 12.124331 )     3.06639439
  WF centre and spread   50  ( -0.000000,  0.002237, 12.162496 )     3.23824842
  WF centre and spread   51  ( -0.000001,  0.133275, 12.202129 )     2.98285314
  WF centre and spread   52  (  0.000001,  0.173451, 12.257044 )     3.29041146
  WF centre and spread   53  (  0.000001, -0.136300, 12.202699 )     2.98175764
  WF centre and spread   54  ( -0.000000, -0.177830, 12.256179 )     3.28868194
  WF centre and spread   55  (  0.000000,  0.002047, 53.070183 )     3.23546396
  WF centre and spread   56  (  0.000000,  0.001415, 53.031441 )     3.06844397
  WF centre and spread   57  ( -0.000000,  0.174431, 53.164539 )     3.29583272
  WF centre and spread   58  (  0.000000,  0.134013, 53.109282 )     2.98721113
  WF centre and spread   59  (  0.000000, -0.179845, 53.164416 )     3.29702169
  WF centre and spread   60  (  0.000000, -0.136749, 53.108779 )     2.98431589
  WF centre and spread   61  ( -0.000000, -0.002344, 28.763470 )     3.23952666
  WF centre and spread   62  (  0.000000, -0.000987, 28.801495 )     3.06707073
  WF centre and spread   63  (  0.000001, -0.173036, 28.669742 )     3.28966668
  WF centre and spread   64  ( -0.000001, -0.133519, 28.723191 )     2.98255761
  WF centre and spread   65  ( -0.000001,  0.177913, 28.669017 )     3.28969019
  WF centre and spread   66  (  0.000001,  0.136132, 28.723574 )     2.98385815
  WF centre and spread   67  ( -0.000000, -0.000745, 69.746417 )     3.06751500
  WF centre and spread   68  ( -0.000000, -0.002686, 69.708047 )     3.23493403
  WF centre and spread   69  ( -0.000000, -0.133745, 69.669252 )     2.98481951
  WF centre and spread   70  (  0.000000, -0.174382, 69.613814 )     3.29571875
  WF centre and spread   71  (  0.000000,  0.136672, 69.668858 )     2.98589559
  WF centre and spread   72  ( -0.000001,  0.179199, 69.613487 )     3.29493084
  WF centre and spread   73  ( -0.000000, -0.000008,  0.000851 )     0.64081214
  WF centre and spread   74  ( -0.000000, -0.000013,  0.002384 )     1.24552494
  WF centre and spread   75  ( -0.000000,  0.000209, -0.000263 )     0.66730554
  WF centre and spread   76  (  0.000000,  0.000603, -0.000744 )     1.06001060
  WF centre and spread   77  (  0.000000, -0.000209, -0.000275 )     0.66611431
  WF centre and spread   78  ( -0.000000, -0.000642, -0.000662 )     1.05760630
  WF centre and spread   79  (  0.000000,  0.000649,  0.000263 )     0.66493329
  WF centre and spread   80  (  0.000000,  0.002074,  0.000922 )     1.22593782
  WF centre and spread   81  (  0.000000, -0.000640,  0.000280 )     0.66476001
  WF centre and spread   82  (  0.000000, -0.001985,  0.000990 )     1.22633533
  WF centre and spread   83  ( -0.000000,  0.000007, 40.923624 )     1.24593940
  WF centre and spread   84  (  0.000000,  0.000008, 40.925149 )     0.64083002
  WF centre and spread   85  (  0.000000, -0.000608, 40.926601 )     1.05978579
  WF centre and spread   86  (  0.000000, -0.000206, 40.926293 )     0.66743701
  WF centre and spread   87  (  0.000000,  0.000688, 40.926802 )     1.05970145
  WF centre and spread   88  (  0.000000,  0.000245, 40.926262 )     0.66596095
  WF centre and spread   89  (  0.000000, -0.001900, 40.925033 )     1.22671708
  WF centre and spread   90  ( -0.000000, -0.000640, 40.925725 )     0.66480228
  WF centre and spread   91  (  0.000000,  0.002129, 40.925065 )     1.22657107
  WF centre and spread   92  (  0.000000,  0.000682, 40.925737 )     0.66496641
  Sum of centres and spreads (  0.000004, -0.007170,********** )   268.54565695
 
         Spreads (Ang^2)       Omega I      =   256.336960066
        ================       Omega D      =     0.530042099
                               Omega OD     =    11.678655568
    Final Spread (Ang^2)       Omega Total  =   268.545657733
 ------------------------------------------------------------------------------

 Wannier centres written to file MnBi2Te4_centres.xyz
 Time for wannierise           43.707 (sec)

 Writing checkpoint file MnBi2Te4.chk... done

 *---------------------------------------------------------------------------*
 |                               PLOTTING                                    |
 *---------------------------------------------------------------------------*
 
 
 Calculating interpolated band-structure
 
 Time to calculate interpolated band structure     258.672 (sec)
 
 Time for plotting            301.463 (sec)
 Total Execution Time        1760.230 (sec)

 *===========================================================================*
 |                             TIMING INFORMATION                            |
 *===========================================================================*
 |    Tag                                                Ncalls      Time (s)|
 |---------------------------------------------------------------------------|
 |kmesh: get                                        :         1         0.175|
 |overlap: allocate                                 :         1         0.029|
 |overlap: read                                     :         1       145.690|
 |dis: main                                         :         1      1267.551|
 |wann: main                                        :         1        43.707|
 |plot: main                                        :         1       301.463|
 *---------------------------------------------------------------------------*
 
 All done: wannier90 exiting
