
     Program PWSCF v.7.2 starts on  6Jan2026 at 20:44:57 

     This program is part of the open-source Quantum ESPRESSO suite
     for quantum simulation of materials; please cite
         "P. Giannozzi et al., J. Phys.:Condens. Matter 21 395502 (2009);
         "P. Giannozzi et al., J. Phys.:Condens. Matter 29 465901 (2017);
         "P. Giannozzi et al., J. Chem. Phys. 152 154105 (2020);
          URL http://www.quantum-espresso.org", 
     in publications or presentations arising from this work. More details at
     http://www.quantum-espresso.org/quote

     Parallel version (MPI), running on    64 processors

     MPI processes distributed on     1 nodes
     201526 MiB available memory on the printing compute node when the environment starts
 
     Reading input from MnBi2Te4.nscf.in

     Current dimensions of program PWSCF are:
     Max number of different atomic species (ntypx) = 10
     Max number of k-points (npk) =  40000
     Max angular momentum in pseudopotentials (lmaxx) =  4

     Atomic positions and unit cell read from directory:
     ./tmp/MnBi2Te4.save/
     Atomic positions from file used, from input discarded
 
     file Mn.rel-pbe-spn-kjpaw_psl.0.3.1.UPF: wavefunction(s)  3P 3P 3D renormalized
     file Mn.rel-pbe-spn-kjpaw_psl.0.3.1.UPF: wavefunction(s)  3P 3P 3D renormalized
     file Bi.rel-pbe-dn-kjpaw_psl.1.0.0.UPF: wavefunction(s)  6P 6P 5D 5D renormalized
     file Te.rel-pbe-n-kjpaw_psl.1.0.0.UPF: wavefunction(s)  5S 5P 5P renormalized

     Fixed quantization axis for GGA:     0.000000    0.000000    1.000000
 
     R & G space division:  proc/nbgrp/npool/nimage =      64
     Subspace diagonalization in iterative solution of the eigenvalue problem:
     one sub-group per band group will be used
     scalapack distributed-memory algorithm (size of sub-group:  2*  2 procs)

 
     Parallelization info
     --------------------
     sticks:   dense  smooth     PW     G-vecs:    dense   smooth      PW
     Min         262     126     38                 8825     2936     488
     Max         263     127     39                 8828     2938     489
     Sum       16819    8079   2441               564899   187971   31237
 
     Using Slab Decomposition
 


     bravais-lattice index     =            0
     lattice parameter (alat)  =      51.7756  a.u.
     unit-cell volume          =    2994.5793 (a.u.)^3
     number of atoms/cell      =           14
     number of atomic types    =            4
     number of electrons       =       138.00
     number of Kohn-Sham states=          240
     kinetic-energy cutoff     =      60.0000  Ry
     charge density cutoff     =     500.0000  Ry
     Exchange-correlation= SLA  PW   PBX  PBC
                           (   1   4   3   4   0   0   0)
     Noncollinear calculation with spin-orbit


     celldm(1)=  51.775642  celldm(2)=   0.000000  celldm(3)=   0.000000
     celldm(4)=   0.000000  celldm(5)=   0.000000  celldm(6)=   0.000000

     crystal axes: (cart. coord. in units of alat)
               a(1) = (   0.079085  -0.045660   0.995822 )  
               a(2) = (   0.000000   0.091319   0.995822 )  
               a(3) = (  -0.079085  -0.045660   0.995822 )  

     reciprocal axes: (cart. coord. in units 2 pi/alat)
               b(1) = (  6.322314 -3.650196  0.334731 )  
               b(2) = (  0.000000  7.300392  0.334734 )  
               b(3) = ( -6.322314 -3.650196  0.334731 )  


     PseudoPot. # 1 for Mn read from file:
     ./Mn.rel-pbe-spn-kjpaw_psl.0.3.1.UPF
     MD5 check sum: dfba1c7561257014502ac20495784078
     Pseudo is Projector augmented-wave + core cor, Zval = 15.0
     Generated using &quot;atomic&quot; code by A. Dal Corso  v.6.2.2
     Shape of augmentation charge: PSQ
     Using radial grid of 1187 points, 10 beta functions with: 
                l(1) =   0
                l(2) =   0
                l(3) =   1
                l(4) =   1
                l(5) =   1
                l(6) =   1
                l(7) =   2
                l(8) =   2
                l(9) =   2
               l(10) =   2
     Q(r) pseudized with 0 coefficients 


     PseudoPot. # 2 for Mn read from file:
     ./Mn.rel-pbe-spn-kjpaw_psl.0.3.1.UPF
     MD5 check sum: dfba1c7561257014502ac20495784078
     Pseudo is Projector augmented-wave + core cor, Zval = 15.0
     Generated using &quot;atomic&quot; code by A. Dal Corso  v.6.2.2
     Shape of augmentation charge: PSQ
     Using radial grid of 1187 points, 10 beta functions with: 
                l(1) =   0
                l(2) =   0
                l(3) =   1
                l(4) =   1
                l(5) =   1
                l(6) =   1
                l(7) =   2
                l(8) =   2
                l(9) =   2
               l(10) =   2
     Q(r) pseudized with 0 coefficients 


     PseudoPot. # 3 for Bi read from file:
     ./Bi.rel-pbe-dn-kjpaw_psl.1.0.0.UPF
     MD5 check sum: 8010b987e9fb97324c8de82fb26a3f7d
     Pseudo is Projector augmented-wave + core cor, Zval = 15.0
     Generated using &quot;atomic&quot; code by A. Dal Corso  v.6.2.2
     Shape of augmentation charge: PSQ
     Using radial grid of 1283 points, 10 beta functions with: 
                l(1) =   0
                l(2) =   0
                l(3) =   1
                l(4) =   1
                l(5) =   1
                l(6) =   1
                l(7) =   2
                l(8) =   2
                l(9) =   2
               l(10) =   2
     Q(r) pseudized with 0 coefficients 


     PseudoPot. # 4 for Te read from file:
     ./Te.rel-pbe-n-kjpaw_psl.1.0.0.UPF
     MD5 check sum: 8399411061dffbb19b40ade5049f5146
     Pseudo is Projector augmented-wave + core cor, Zval =  6.0
     Generated using &quot;atomic&quot; code by A. Dal Corso  v.6.3
     Shape of augmentation charge: PSQ
     Using radial grid of 1245 points, 10 beta functions with: 
                l(1) =   0
                l(2) =   0
                l(3) =   1
                l(4) =   1
                l(5) =   1
                l(6) =   1
                l(7) =   2
                l(8) =   2
                l(9) =   2
               l(10) =   2
     Q(r) pseudized with 0 coefficients 


     atomic species   valence    mass     pseudopotential
        Mn1           15.00    54.93800     Mn( 1.00)
        Mn2           15.00    54.93800     Mn( 1.00)
        Bi            15.00   208.98000     Bi( 1.00)
        Te             6.00   127.60300     Te( 1.00)

     No symmetry found


                                    s                        frac. trans.

      isym =  1     identity                                     

 Time Reversal            0
 cryst.   s( 1) = (     1          0          0      )
                  (     0          1          0      )
                  (     0          0          1      )

 cart.    s( 1) = (  1.0000000  0.0000000  0.0000000 )
                  (  0.0000000  1.0000000  0.0000000 )
                  (  0.0000000  0.0000000  1.0000000 )


   Cartesian axes

     site n.     atom                  positions (alat units)
         1           Mn1 tau(   1) = (   0.0000000   0.0000000   0.0000000  )
         2           Mn2 tau(   2) = (   0.0000000   0.0000000   1.4937321  )
         3           Bi  tau(   3) = (   0.0000000   0.0000000   0.6346867  )
         4           Bi  tau(   4) = (   0.0000000   0.0000000   2.1284188  )
         5           Bi  tau(   5) = (   0.0000000   0.0000000   0.8590453  )
         6           Bi  tau(   6) = (   0.0000000   0.0000000   2.3527773  )
         7           Te  tau(   7) = (   0.0000000   0.0000000   0.1992041  )
         8           Te  tau(   8) = (   0.0000000   0.0000000   1.6929361  )
         9           Te  tau(   9) = (   0.0000000   0.0000000   1.2945279  )
        10           Te  tau(  10) = (   0.0000000   0.0000000   2.7882600  )
        11           Te  tau(  11) = (   0.0000000   0.0000000   0.4396119  )
        12           Te  tau(  12) = (   0.0000000   0.0000000   1.9326139  )
        13           Te  tau(  13) = (   0.0000000   0.0000000   1.0541202  )
        14           Te  tau(  14) = (   0.0000000   0.0000000   2.5485822  )

     --------------------------------------------
     DFT-D3 Dispersion Correction (3-body terms):
     --------------------------------------------
       Reference C6 values for interpolation: 

         atom   Coordination number   C6
         Mn1        0.000          1605.50
         Mn1        1.641           479.11
         Mn1        9.885           227.69
         Mn2        0.000          1605.50
         Mn2        1.641           479.11
         Mn2        9.885           227.69
         Te         0.000           851.07
         Te         0.981           850.20
         Te         1.964           837.16
         Bi         0.000          1235.06
         Bi         0.982          1188.09
         Bi         1.966          1132.10
         Bi         2.950          1067.76

       Values used:

         atom   Coordination number  R0_AB[au]  C6      C8
         Mn1        3.847            3.351    479.11  48433.79
         Mn2        3.847            3.351    479.11  48433.79
         Bi         5.296            3.890   1067.76 147315.96
         Bi         5.253            3.890   1067.76 147315.96
         Bi         5.296            3.890   1067.76 147315.96
         Bi         5.253            3.890   1067.76 147315.96
         Te         3.328            3.676    837.16  84978.06
         Te         3.329            3.676    837.16  84978.06
         Te         3.328            3.676    837.16  84978.06
         Te         3.329            3.676    837.16  84978.06
         Te         4.236            3.676    837.16  84978.05
         Te         4.238            3.676    837.16  84978.05
         Te         4.237            3.676    837.16  84978.05
         Te         4.238            3.676    837.16  84978.05

         Molecular C6 ( Ry / a.u.^6 ) =    164642.77


   Crystallographic axes

     site n.     atom                  positions (cryst. coord.)
         1           Mn1 tau(   1) = (  0.0000000  0.0000000  0.0000000  )
         2           Mn2 tau(   2) = (  0.4999980  0.5000035  0.4999980  )
         3           Bi  tau(   3) = (  0.2124492  0.2124515  0.2124492  )
         4           Bi  tau(   4) = (  0.7124472  0.7124550  0.7124472  )
         5           Bi  tau(   5) = (  0.2875489  0.2875520  0.2875489  )
         6           Bi  tau(   6) = (  0.7875469  0.7875555  0.7875469  )
         7           Te  tau(   7) = (  0.0666798  0.0666805  0.0666798  )
         8           Te  tau(   8) = (  0.5666778  0.5666840  0.5666778  )
         9           Te  tau(   9) = (  0.4333183  0.4333230  0.4333183  )
        10           Te  tau(  10) = (  0.9333163  0.9333266  0.9333163  )
        11           Te  tau(  11) = (  0.1471516  0.1471532  0.1471516  )
        12           Te  tau(  12) = (  0.6469053  0.6469124  0.6469053  )
        13           Te  tau(  13) = (  0.3528464  0.3528503  0.3528464  )
        14           Te  tau(  14) = (  0.8530888  0.8530981  0.8530888  )

     number of k points=   512
                       cart. coord. in units 2pi/alat
        k(    1) = (   0.0000000   0.0000000   0.0000000), wk =   0.0019531
        k(    2) = (  -0.7902892  -0.4562745   0.0418413), wk =   0.0019531
        k(    3) = (  -1.5805784  -0.9125490   0.0836827), wk =   0.0019531
        k(    4) = (  -2.3708677  -1.3688235   0.1255240), wk =   0.0019531
        k(    5) = (  -3.1611569  -1.8250979   0.1673654), wk =   0.0019531
        k(    6) = (  -3.9514461  -2.2813724   0.2092067), wk =   0.0019531
        k(    7) = (  -4.7417353  -2.7376469   0.2510481), wk =   0.0019531
        k(    8) = (  -5.5320245  -3.1939214   0.2928894), wk =   0.0019531
        k(    9) = (   0.0000000   0.9125490   0.0418418), wk =   0.0019531
        k(   10) = (  -0.7902892   0.4562745   0.0836831), wk =   0.0019531
        k(   11) = (  -1.5805784   0.0000000   0.1255245), wk =   0.0019531
        k(   12) = (  -2.3708677  -0.4562745   0.1673658), wk =   0.0019531
        k(   13) = (  -3.1611569  -0.9125490   0.2092072), wk =   0.0019531
        k(   14) = (  -3.9514461  -1.3688235   0.2510485), wk =   0.0019531
        k(   15) = (  -4.7417353  -1.8250979   0.2928899), wk =   0.0019531
        k(   16) = (  -5.5320245  -2.2813724   0.3347312), wk =   0.0019531
        k(   17) = (   0.0000000   1.8250979   0.0836836), wk =   0.0019531
        k(   18) = (  -0.7902892   1.3688235   0.1255249), wk =   0.0019531
        k(   19) = (  -1.5805784   0.9125490   0.1673663), wk =   0.0019531
        k(   20) = (  -2.3708677   0.4562745   0.2092076), wk =   0.0019531
        k(   21) = (  -3.1611569   0.0000000   0.2510490), wk =   0.0019531
        k(   22) = (  -3.9514461  -0.4562745   0.2928903), wk =   0.0019531
        k(   23) = (  -4.7417353  -0.9125490   0.3347317), wk =   0.0019531
        k(   24) = (  -5.5320245  -1.3688235   0.3765730), wk =   0.0019531
        k(   25) = (   0.0000000   2.7376469   0.1255254), wk =   0.0019531
        k(   26) = (  -0.7902892   2.2813724   0.1673667), wk =   0.0019531
        k(   27) = (  -1.5805784   1.8250979   0.2092081), wk =   0.0019531
        k(   28) = (  -2.3708677   1.3688235   0.2510494), wk =   0.0019531
        k(   29) = (  -3.1611569   0.9125490   0.2928908), wk =   0.0019531
        k(   30) = (  -3.9514461   0.4562745   0.3347321), wk =   0.0019531
        k(   31) = (  -4.7417353   0.0000000   0.3765735), wk =   0.0019531
        k(   32) = (  -5.5320245  -0.4562745   0.4184148), wk =   0.0019531
        k(   33) = (   0.0000000   3.6501959   0.1673672), wk =   0.0019531
        k(   34) = (  -0.7902892   3.1939214   0.2092085), wk =   0.0019531
        k(   35) = (  -1.5805784   2.7376469   0.2510499), wk =   0.0019531
        k(   36) = (  -2.3708677   2.2813724   0.2928912), wk =   0.0019531
        k(   37) = (  -3.1611569   1.8250979   0.3347326), wk =   0.0019531
        k(   38) = (  -3.9514461   1.3688235   0.3765739), wk =   0.0019531
        k(   39) = (  -4.7417353   0.9125490   0.4184153), wk =   0.0019531
        k(   40) = (  -5.5320245   0.4562745   0.4602566), wk =   0.0019531
        k(   41) = (   0.0000000   4.5627449   0.2092090), wk =   0.0019531
        k(   42) = (  -0.7902892   4.1064704   0.2510503), wk =   0.0019531
        k(   43) = (  -1.5805784   3.6501959   0.2928917), wk =   0.0019531
        k(   44) = (  -2.3708677   3.1939214   0.3347330), wk =   0.0019531
        k(   45) = (  -3.1611569   2.7376469   0.3765744), wk =   0.0019531
        k(   46) = (  -3.9514461   2.2813724   0.4184157), wk =   0.0019531
        k(   47) = (  -4.7417353   1.8250979   0.4602571), wk =   0.0019531
        k(   48) = (  -5.5320245   1.3688235   0.5020984), wk =   0.0019531
        k(   49) = (   0.0000000   5.4752938   0.2510508), wk =   0.0019531
        k(   50) = (  -0.7902892   5.0190193   0.2928921), wk =   0.0019531
        k(   51) = (  -1.5805784   4.5627449   0.3347335), wk =   0.0019531
        k(   52) = (  -2.3708677   4.1064704   0.3765748), wk =   0.0019531
        k(   53) = (  -3.1611569   3.6501959   0.4184162), wk =   0.0019531
        k(   54) = (  -3.9514461   3.1939214   0.4602575), wk =   0.0019531
        k(   55) = (  -4.7417353   2.7376469   0.5020989), wk =   0.0019531
        k(   56) = (  -5.5320245   2.2813724   0.5439402), wk =   0.0019531
        k(   57) = (   0.0000000   6.3878428   0.2928926), wk =   0.0019531
        k(   58) = (  -0.7902892   5.9315683   0.3347340), wk =   0.0019531
        k(   59) = (  -1.5805784   5.4752938   0.3765753), wk =   0.0019531
        k(   60) = (  -2.3708677   5.0190193   0.4184166), wk =   0.0019531
        k(   61) = (  -3.1611569   4.5627449   0.4602580), wk =   0.0019531
        k(   62) = (  -3.9514461   4.1064704   0.5020993), wk =   0.0019531
        k(   63) = (  -4.7417353   3.6501959   0.5439407), wk =   0.0019531
        k(   64) = (  -5.5320245   3.1939214   0.5857820), wk =   0.0019531
        k(   65) = (   0.7902892  -0.4562745   0.0418413), wk =   0.0019531
        k(   66) = (   0.0000000  -0.9125490   0.0836827), wk =   0.0019531
        k(   67) = (  -0.7902892  -1.3688235   0.1255240), wk =   0.0019531
        k(   68) = (  -1.5805784  -1.8250979   0.1673654), wk =   0.0019531
        k(   69) = (  -2.3708677  -2.2813724   0.2092067), wk =   0.0019531
        k(   70) = (  -3.1611569  -2.7376469   0.2510481), wk =   0.0019531
        k(   71) = (  -3.9514461  -3.1939214   0.2928894), wk =   0.0019531
        k(   72) = (  -4.7417353  -3.6501959   0.3347307), wk =   0.0019531
        k(   73) = (   0.7902892   0.4562745   0.0836831), wk =   0.0019531
        k(   74) = (   0.0000000   0.0000000   0.1255245), wk =   0.0019531
        k(   75) = (  -0.7902892  -0.4562745   0.1673658), wk =   0.0019531
        k(   76) = (  -1.5805784  -0.9125490   0.2092072), wk =   0.0019531
        k(   77) = (  -2.3708677  -1.3688235   0.2510485), wk =   0.0019531
        k(   78) = (  -3.1611569  -1.8250979   0.2928899), wk =   0.0019531
        k(   79) = (  -3.9514461  -2.2813724   0.3347312), wk =   0.0019531
        k(   80) = (  -4.7417353  -2.7376469   0.3765725), wk =   0.0019531
        k(   81) = (   0.7902892   1.3688235   0.1255249), wk =   0.0019531
        k(   82) = (   0.0000000   0.9125490   0.1673663), wk =   0.0019531
        k(   83) = (  -0.7902892   0.4562745   0.2092076), wk =   0.0019531
        k(   84) = (  -1.5805784   0.0000000   0.2510490), wk =   0.0019531
        k(   85) = (  -2.3708677  -0.4562745   0.2928903), wk =   0.0019531
        k(   86) = (  -3.1611569  -0.9125490   0.3347317), wk =   0.0019531
        k(   87) = (  -3.9514461  -1.3688235   0.3765730), wk =   0.0019531
        k(   88) = (  -4.7417353  -1.8250979   0.4184143), wk =   0.0019531
        k(   89) = (   0.7902892   2.2813724   0.1673667), wk =   0.0019531
        k(   90) = (   0.0000000   1.8250979   0.2092081), wk =   0.0019531
        k(   91) = (  -0.7902892   1.3688235   0.2510494), wk =   0.0019531
        k(   92) = (  -1.5805784   0.9125490   0.2928908), wk =   0.0019531
        k(   93) = (  -2.3708677   0.4562745   0.3347321), wk =   0.0019531
        k(   94) = (  -3.1611569   0.0000000   0.3765735), wk =   0.0019531
        k(   95) = (  -3.9514461  -0.4562745   0.4184148), wk =   0.0019531
        k(   96) = (  -4.7417353  -0.9125490   0.4602561), wk =   0.0019531
        k(   97) = (   0.7902892   3.1939214   0.2092085), wk =   0.0019531
        k(   98) = (   0.0000000   2.7376469   0.2510499), wk =   0.0019531
        k(   99) = (  -0.7902892   2.2813724   0.2928912), wk =   0.0019531
        k(  100) = (  -1.5805784   1.8250979   0.3347326), wk =   0.0019531
        k(  101) = (  -2.3708677   1.3688235   0.3765739), wk =   0.0019531
        k(  102) = (  -3.1611569   0.9125490   0.4184153), wk =   0.0019531
        k(  103) = (  -3.9514461   0.4562745   0.4602566), wk =   0.0019531
        k(  104) = (  -4.7417353   0.0000000   0.5020979), wk =   0.0019531
        k(  105) = (   0.7902892   4.1064704   0.2510503), wk =   0.0019531
        k(  106) = (   0.0000000   3.6501959   0.2928917), wk =   0.0019531
        k(  107) = (  -0.7902892   3.1939214   0.3347330), wk =   0.0019531
        k(  108) = (  -1.5805784   2.7376469   0.3765744), wk =   0.0019531
        k(  109) = (  -2.3708677   2.2813724   0.4184157), wk =   0.0019531
        k(  110) = (  -3.1611569   1.8250979   0.4602571), wk =   0.0019531
        k(  111) = (  -3.9514461   1.3688235   0.5020984), wk =   0.0019531
        k(  112) = (  -4.7417353   0.9125490   0.5439397), wk =   0.0019531
        k(  113) = (   0.7902892   5.0190193   0.2928921), wk =   0.0019531
        k(  114) = (   0.0000000   4.5627449   0.3347335), wk =   0.0019531
        k(  115) = (  -0.7902892   4.1064704   0.3765748), wk =   0.0019531
        k(  116) = (  -1.5805784   3.6501959   0.4184162), wk =   0.0019531
        k(  117) = (  -2.3708677   3.1939214   0.4602575), wk =   0.0019531
        k(  118) = (  -3.1611569   2.7376469   0.5020989), wk =   0.0019531
        k(  119) = (  -3.9514461   2.2813724   0.5439402), wk =   0.0019531
        k(  120) = (  -4.7417353   1.8250979   0.5857815), wk =   0.0019531
        k(  121) = (   0.7902892   5.9315683   0.3347340), wk =   0.0019531
        k(  122) = (   0.0000000   5.4752938   0.3765753), wk =   0.0019531
        k(  123) = (  -0.7902892   5.0190193   0.4184166), wk =   0.0019531
        k(  124) = (  -1.5805784   4.5627449   0.4602580), wk =   0.0019531
        k(  125) = (  -2.3708677   4.1064704   0.5020993), wk =   0.0019531
        k(  126) = (  -3.1611569   3.6501959   0.5439407), wk =   0.0019531
        k(  127) = (  -3.9514461   3.1939214   0.5857820), wk =   0.0019531
        k(  128) = (  -4.7417353   2.7376469   0.6276234), wk =   0.0019531
        k(  129) = (   1.5805784  -0.9125490   0.0836827), wk =   0.0019531
        k(  130) = (   0.7902892  -1.3688235   0.1255240), wk =   0.0019531
        k(  131) = (   0.0000000  -1.8250979   0.1673654), wk =   0.0019531
        k(  132) = (  -0.7902892  -2.2813724   0.2092067), wk =   0.0019531
        k(  133) = (  -1.5805784  -2.7376469   0.2510481), wk =   0.0019531
        k(  134) = (  -2.3708677  -3.1939214   0.2928894), wk =   0.0019531
        k(  135) = (  -3.1611569  -3.6501959   0.3347307), wk =   0.0019531
        k(  136) = (  -3.9514461  -4.1064704   0.3765721), wk =   0.0019531
        k(  137) = (   1.5805784   0.0000000   0.1255245), wk =   0.0019531
        k(  138) = (   0.7902892  -0.4562745   0.1673658), wk =   0.0019531
        k(  139) = (   0.0000000  -0.9125490   0.2092072), wk =   0.0019531
        k(  140) = (  -0.7902892  -1.3688235   0.2510485), wk =   0.0019531
        k(  141) = (  -1.5805784  -1.8250979   0.2928899), wk =   0.0019531
        k(  142) = (  -2.3708677  -2.2813724   0.3347312), wk =   0.0019531
        k(  143) = (  -3.1611569  -2.7376469   0.3765725), wk =   0.0019531
        k(  144) = (  -3.9514461  -3.1939214   0.4184139), wk =   0.0019531
        k(  145) = (   1.5805784   0.9125490   0.1673663), wk =   0.0019531
        k(  146) = (   0.7902892   0.4562745   0.2092076), wk =   0.0019531
        k(  147) = (   0.0000000   0.0000000   0.2510490), wk =   0.0019531
        k(  148) = (  -0.7902892  -0.4562745   0.2928903), wk =   0.0019531
        k(  149) = (  -1.5805784  -0.9125490   0.3347317), wk =   0.0019531
        k(  150) = (  -2.3708677  -1.3688235   0.3765730), wk =   0.0019531
        k(  151) = (  -3.1611569  -1.8250979   0.4184143), wk =   0.0019531
        k(  152) = (  -3.9514461  -2.2813724   0.4602557), wk =   0.0019531
        k(  153) = (   1.5805784   1.8250979   0.2092081), wk =   0.0019531
        k(  154) = (   0.7902892   1.3688235   0.2510494), wk =   0.0019531
        k(  155) = (   0.0000000   0.9125490   0.2928908), wk =   0.0019531
        k(  156) = (  -0.7902892   0.4562745   0.3347321), wk =   0.0019531
        k(  157) = (  -1.5805784   0.0000000   0.3765735), wk =   0.0019531
        k(  158) = (  -2.3708677  -0.4562745   0.4184148), wk =   0.0019531
        k(  159) = (  -3.1611569  -0.9125490   0.4602561), wk =   0.0019531
        k(  160) = (  -3.9514461  -1.3688235   0.5020975), wk =   0.0019531
        k(  161) = (   1.5805784   2.7376469   0.2510499), wk =   0.0019531
        k(  162) = (   0.7902892   2.2813724   0.2928912), wk =   0.0019531
        k(  163) = (   0.0000000   1.8250979   0.3347326), wk =   0.0019531
        k(  164) = (  -0.7902892   1.3688235   0.3765739), wk =   0.0019531
        k(  165) = (  -1.5805784   0.9125490   0.4184153), wk =   0.0019531
        k(  166) = (  -2.3708677   0.4562745   0.4602566), wk =   0.0019531
        k(  167) = (  -3.1611569   0.0000000   0.5020979), wk =   0.0019531
        k(  168) = (  -3.9514461  -0.4562745   0.5439393), wk =   0.0019531
        k(  169) = (   1.5805784   3.6501959   0.2928917), wk =   0.0019531
        k(  170) = (   0.7902892   3.1939214   0.3347330), wk =   0.0019531
        k(  171) = (   0.0000000   2.7376469   0.3765744), wk =   0.0019531
        k(  172) = (  -0.7902892   2.2813724   0.4184157), wk =   0.0019531
        k(  173) = (  -1.5805784   1.8250979   0.4602571), wk =   0.0019531
        k(  174) = (  -2.3708677   1.3688235   0.5020984), wk =   0.0019531
        k(  175) = (  -3.1611569   0.9125490   0.5439397), wk =   0.0019531
        k(  176) = (  -3.9514461   0.4562745   0.5857811), wk =   0.0019531
        k(  177) = (   1.5805784   4.5627449   0.3347335), wk =   0.0019531
        k(  178) = (   0.7902892   4.1064704   0.3765748), wk =   0.0019531
        k(  179) = (   0.0000000   3.6501959   0.4184162), wk =   0.0019531
        k(  180) = (  -0.7902892   3.1939214   0.4602575), wk =   0.0019531
        k(  181) = (  -1.5805784   2.7376469   0.5020989), wk =   0.0019531
        k(  182) = (  -2.3708677   2.2813724   0.5439402), wk =   0.0019531
        k(  183) = (  -3.1611569   1.8250979   0.5857815), wk =   0.0019531
        k(  184) = (  -3.9514461   1.3688235   0.6276229), wk =   0.0019531
        k(  185) = (   1.5805784   5.4752938   0.3765753), wk =   0.0019531
        k(  186) = (   0.7902892   5.0190193   0.4184166), wk =   0.0019531
        k(  187) = (   0.0000000   4.5627449   0.4602580), wk =   0.0019531
        k(  188) = (  -0.7902892   4.1064704   0.5020993), wk =   0.0019531
        k(  189) = (  -1.5805784   3.6501959   0.5439407), wk =   0.0019531
        k(  190) = (  -2.3708677   3.1939214   0.5857820), wk =   0.0019531
        k(  191) = (  -3.1611569   2.7376469   0.6276234), wk =   0.0019531
        k(  192) = (  -3.9514461   2.2813724   0.6694647), wk =   0.0019531
        k(  193) = (   2.3708677  -1.3688235   0.1255240), wk =   0.0019531
        k(  194) = (   1.5805784  -1.8250979   0.1673654), wk =   0.0019531
        k(  195) = (   0.7902892  -2.2813724   0.2092067), wk =   0.0019531
        k(  196) = (   0.0000000  -2.7376469   0.2510481), wk =   0.0019531
        k(  197) = (  -0.7902892  -3.1939214   0.2928894), wk =   0.0019531
        k(  198) = (  -1.5805784  -3.6501959   0.3347307), wk =   0.0019531
        k(  199) = (  -2.3708677  -4.1064704   0.3765721), wk =   0.0019531
        k(  200) = (  -3.1611569  -4.5627449   0.4184134), wk =   0.0019531
        k(  201) = (   2.3708677  -0.4562745   0.1673658), wk =   0.0019531
        k(  202) = (   1.5805784  -0.9125490   0.2092072), wk =   0.0019531
        k(  203) = (   0.7902892  -1.3688235   0.2510485), wk =   0.0019531
        k(  204) = (   0.0000000  -1.8250979   0.2928899), wk =   0.0019531
        k(  205) = (  -0.7902892  -2.2813724   0.3347312), wk =   0.0019531
        k(  206) = (  -1.5805784  -2.7376469   0.3765725), wk =   0.0019531
        k(  207) = (  -2.3708677  -3.1939214   0.4184139), wk =   0.0019531
        k(  208) = (  -3.1611569  -3.6501959   0.4602552), wk =   0.0019531
        k(  209) = (   2.3708677   0.4562745   0.2092076), wk =   0.0019531
        k(  210) = (   1.5805784   0.0000000   0.2510490), wk =   0.0019531
        k(  211) = (   0.7902892  -0.4562745   0.2928903), wk =   0.0019531
        k(  212) = (   0.0000000  -0.9125490   0.3347317), wk =   0.0019531
        k(  213) = (  -0.7902892  -1.3688235   0.3765730), wk =   0.0019531
        k(  214) = (  -1.5805784  -1.8250979   0.4184143), wk =   0.0019531
        k(  215) = (  -2.3708677  -2.2813724   0.4602557), wk =   0.0019531
        k(  216) = (  -3.1611569  -2.7376469   0.5020970), wk =   0.0019531
        k(  217) = (   2.3708677   1.3688235   0.2510494), wk =   0.0019531
        k(  218) = (   1.5805784   0.9125490   0.2928908), wk =   0.0019531
        k(  219) = (   0.7902892   0.4562745   0.3347321), wk =   0.0019531
        k(  220) = (   0.0000000   0.0000000   0.3765735), wk =   0.0019531
        k(  221) = (  -0.7902892  -0.4562745   0.4184148), wk =   0.0019531
        k(  222) = (  -1.5805784  -0.9125490   0.4602561), wk =   0.0019531
        k(  223) = (  -2.3708677  -1.3688235   0.5020975), wk =   0.0019531
        k(  224) = (  -3.1611569  -1.8250979   0.5439388), wk =   0.0019531
        k(  225) = (   2.3708677   2.2813724   0.2928912), wk =   0.0019531
        k(  226) = (   1.5805784   1.8250979   0.3347326), wk =   0.0019531
        k(  227) = (   0.7902892   1.3688235   0.3765739), wk =   0.0019531
        k(  228) = (   0.0000000   0.9125490   0.4184153), wk =   0.0019531
        k(  229) = (  -0.7902892   0.4562745   0.4602566), wk =   0.0019531
        k(  230) = (  -1.5805784   0.0000000   0.5020979), wk =   0.0019531
        k(  231) = (  -2.3708677  -0.4562745   0.5439393), wk =   0.0019531
        k(  232) = (  -3.1611569  -0.9125490   0.5857806), wk =   0.0019531
        k(  233) = (   2.3708677   3.1939214   0.3347330), wk =   0.0019531
        k(  234) = (   1.5805784   2.7376469   0.3765744), wk =   0.0019531
        k(  235) = (   0.7902892   2.2813724   0.4184157), wk =   0.0019531
        k(  236) = (   0.0000000   1.8250979   0.4602571), wk =   0.0019531
        k(  237) = (  -0.7902892   1.3688235   0.5020984), wk =   0.0019531
        k(  238) = (  -1.5805784   0.9125490   0.5439397), wk =   0.0019531
        k(  239) = (  -2.3708677   0.4562745   0.5857811), wk =   0.0019531
        k(  240) = (  -3.1611569  -0.0000000   0.6276224), wk =   0.0019531
        k(  241) = (   2.3708677   4.1064704   0.3765748), wk =   0.0019531
        k(  242) = (   1.5805784   3.6501959   0.4184162), wk =   0.0019531
        k(  243) = (   0.7902892   3.1939214   0.4602575), wk =   0.0019531
        k(  244) = (   0.0000000   2.7376469   0.5020989), wk =   0.0019531
        k(  245) = (  -0.7902892   2.2813724   0.5439402), wk =   0.0019531
        k(  246) = (  -1.5805784   1.8250979   0.5857815), wk =   0.0019531
        k(  247) = (  -2.3708677   1.3688235   0.6276229), wk =   0.0019531
        k(  248) = (  -3.1611569   0.9125490   0.6694642), wk =   0.0019531
        k(  249) = (   2.3708677   5.0190193   0.4184166), wk =   0.0019531
        k(  250) = (   1.5805784   4.5627449   0.4602580), wk =   0.0019531
        k(  251) = (   0.7902892   4.1064704   0.5020993), wk =   0.0019531
        k(  252) = (   0.0000000   3.6501959   0.5439407), wk =   0.0019531
        k(  253) = (  -0.7902892   3.1939214   0.5857820), wk =   0.0019531
        k(  254) = (  -1.5805784   2.7376469   0.6276234), wk =   0.0019531
        k(  255) = (  -2.3708677   2.2813724   0.6694647), wk =   0.0019531
        k(  256) = (  -3.1611569   1.8250979   0.7113060), wk =   0.0019531
        k(  257) = (   3.1611569  -1.8250979   0.1673654), wk =   0.0019531
        k(  258) = (   2.3708677  -2.2813724   0.2092067), wk =   0.0019531
        k(  259) = (   1.5805784  -2.7376469   0.2510481), wk =   0.0019531
        k(  260) = (   0.7902892  -3.1939214   0.2928894), wk =   0.0019531
        k(  261) = (   0.0000000  -3.6501959   0.3347307), wk =   0.0019531
        k(  262) = (  -0.7902892  -4.1064704   0.3765721), wk =   0.0019531
        k(  263) = (  -1.5805784  -4.5627449   0.4184134), wk =   0.0019531
        k(  264) = (  -2.3708677  -5.0190193   0.4602548), wk =   0.0019531
        k(  265) = (   3.1611569  -0.9125490   0.2092072), wk =   0.0019531
        k(  266) = (   2.3708677  -1.3688235   0.2510485), wk =   0.0019531
        k(  267) = (   1.5805784  -1.8250979   0.2928899), wk =   0.0019531
        k(  268) = (   0.7902892  -2.2813724   0.3347312), wk =   0.0019531
        k(  269) = (   0.0000000  -2.7376469   0.3765725), wk =   0.0019531
        k(  270) = (  -0.7902892  -3.1939214   0.4184139), wk =   0.0019531
        k(  271) = (  -1.5805784  -3.6501959   0.4602552), wk =   0.0019531
        k(  272) = (  -2.3708677  -4.1064704   0.5020966), wk =   0.0019531
        k(  273) = (   3.1611569   0.0000000   0.2510490), wk =   0.0019531
        k(  274) = (   2.3708677  -0.4562745   0.2928903), wk =   0.0019531
        k(  275) = (   1.5805784  -0.9125490   0.3347317), wk =   0.0019531
        k(  276) = (   0.7902892  -1.3688235   0.3765730), wk =   0.0019531
        k(  277) = (   0.0000000  -1.8250979   0.4184143), wk =   0.0019531
        k(  278) = (  -0.7902892  -2.2813724   0.4602557), wk =   0.0019531
        k(  279) = (  -1.5805784  -2.7376469   0.5020970), wk =   0.0019531
        k(  280) = (  -2.3708677  -3.1939214   0.5439384), wk =   0.0019531
        k(  281) = (   3.1611569   0.9125490   0.2928908), wk =   0.0019531
        k(  282) = (   2.3708677   0.4562745   0.3347321), wk =   0.0019531
        k(  283) = (   1.5805784   0.0000000   0.3765735), wk =   0.0019531
        k(  284) = (   0.7902892  -0.4562745   0.4184148), wk =   0.0019531
        k(  285) = (   0.0000000  -0.9125490   0.4602561), wk =   0.0019531
        k(  286) = (  -0.7902892  -1.3688235   0.5020975), wk =   0.0019531
        k(  287) = (  -1.5805784  -1.8250979   0.5439388), wk =   0.0019531
        k(  288) = (  -2.3708677  -2.2813724   0.5857802), wk =   0.0019531
        k(  289) = (   3.1611569   1.8250979   0.3347326), wk =   0.0019531
        k(  290) = (   2.3708677   1.3688235   0.3765739), wk =   0.0019531
        k(  291) = (   1.5805784   0.9125490   0.4184153), wk =   0.0019531
        k(  292) = (   0.7902892   0.4562745   0.4602566), wk =   0.0019531
        k(  293) = (   0.0000000   0.0000000   0.5020979), wk =   0.0019531
        k(  294) = (  -0.7902892  -0.4562745   0.5439393), wk =   0.0019531
        k(  295) = (  -1.5805784  -0.9125490   0.5857806), wk =   0.0019531
        k(  296) = (  -2.3708677  -1.3688235   0.6276220), wk =   0.0019531
        k(  297) = (   3.1611569   2.7376469   0.3765744), wk =   0.0019531
        k(  298) = (   2.3708677   2.2813724   0.4184157), wk =   0.0019531
        k(  299) = (   1.5805784   1.8250979   0.4602571), wk =   0.0019531
        k(  300) = (   0.7902892   1.3688235   0.5020984), wk =   0.0019531
        k(  301) = (   0.0000000   0.9125490   0.5439397), wk =   0.0019531
        k(  302) = (  -0.7902892   0.4562745   0.5857811), wk =   0.0019531
        k(  303) = (  -1.5805784  -0.0000000   0.6276224), wk =   0.0019531
        k(  304) = (  -2.3708677  -0.4562745   0.6694638), wk =   0.0019531
        k(  305) = (   3.1611569   3.6501959   0.4184162), wk =   0.0019531
        k(  306) = (   2.3708677   3.1939214   0.4602575), wk =   0.0019531
        k(  307) = (   1.5805784   2.7376469   0.5020989), wk =   0.0019531
        k(  308) = (   0.7902892   2.2813724   0.5439402), wk =   0.0019531
        k(  309) = (   0.0000000   1.8250979   0.5857815), wk =   0.0019531
        k(  310) = (  -0.7902892   1.3688235   0.6276229), wk =   0.0019531
        k(  311) = (  -1.5805784   0.9125490   0.6694642), wk =   0.0019531
        k(  312) = (  -2.3708677   0.4562745   0.7113056), wk =   0.0019531
        k(  313) = (   3.1611569   4.5627449   0.4602580), wk =   0.0019531
        k(  314) = (   2.3708677   4.1064704   0.5020993), wk =   0.0019531
        k(  315) = (   1.5805784   3.6501959   0.5439407), wk =   0.0019531
        k(  316) = (   0.7902892   3.1939214   0.5857820), wk =   0.0019531
        k(  317) = (   0.0000000   2.7376469   0.6276234), wk =   0.0019531
        k(  318) = (  -0.7902892   2.2813724   0.6694647), wk =   0.0019531
        k(  319) = (  -1.5805784   1.8250979   0.7113060), wk =   0.0019531
        k(  320) = (  -2.3708677   1.3688235   0.7531474), wk =   0.0019531
        k(  321) = (   3.9514461  -2.2813724   0.2092067), wk =   0.0019531
        k(  322) = (   3.1611569  -2.7376469   0.2510481), wk =   0.0019531
        k(  323) = (   2.3708677  -3.1939214   0.2928894), wk =   0.0019531
        k(  324) = (   1.5805784  -3.6501959   0.3347307), wk =   0.0019531
        k(  325) = (   0.7902892  -4.1064704   0.3765721), wk =   0.0019531
        k(  326) = (   0.0000000  -4.5627449   0.4184134), wk =   0.0019531
        k(  327) = (  -0.7902892  -5.0190193   0.4602548), wk =   0.0019531
        k(  328) = (  -1.5805784  -5.4752938   0.5020961), wk =   0.0019531
        k(  329) = (   3.9514461  -1.3688235   0.2510485), wk =   0.0019531
        k(  330) = (   3.1611569  -1.8250979   0.2928899), wk =   0.0019531
        k(  331) = (   2.3708677  -2.2813724   0.3347312), wk =   0.0019531
        k(  332) = (   1.5805784  -2.7376469   0.3765725), wk =   0.0019531
        k(  333) = (   0.7902892  -3.1939214   0.4184139), wk =   0.0019531
        k(  334) = (   0.0000000  -3.6501959   0.4602552), wk =   0.0019531
        k(  335) = (  -0.7902892  -4.1064704   0.5020966), wk =   0.0019531
        k(  336) = (  -1.5805784  -4.5627449   0.5439379), wk =   0.0019531
        k(  337) = (   3.9514461  -0.4562745   0.2928903), wk =   0.0019531
        k(  338) = (   3.1611569  -0.9125490   0.3347317), wk =   0.0019531
        k(  339) = (   2.3708677  -1.3688235   0.3765730), wk =   0.0019531
        k(  340) = (   1.5805784  -1.8250979   0.4184143), wk =   0.0019531
        k(  341) = (   0.7902892  -2.2813724   0.4602557), wk =   0.0019531
        k(  342) = (   0.0000000  -2.7376469   0.5020970), wk =   0.0019531
        k(  343) = (  -0.7902892  -3.1939214   0.5439384), wk =   0.0019531
        k(  344) = (  -1.5805784  -3.6501959   0.5857797), wk =   0.0019531
        k(  345) = (   3.9514461   0.4562745   0.3347321), wk =   0.0019531
        k(  346) = (   3.1611569   0.0000000   0.3765735), wk =   0.0019531
        k(  347) = (   2.3708677  -0.4562745   0.4184148), wk =   0.0019531
        k(  348) = (   1.5805784  -0.9125490   0.4602561), wk =   0.0019531
        k(  349) = (   0.7902892  -1.3688235   0.5020975), wk =   0.0019531
        k(  350) = (   0.0000000  -1.8250979   0.5439388), wk =   0.0019531
        k(  351) = (  -0.7902892  -2.2813724   0.5857802), wk =   0.0019531
        k(  352) = (  -1.5805784  -2.7376469   0.6276215), wk =   0.0019531
        k(  353) = (   3.9514461   1.3688235   0.3765739), wk =   0.0019531
        k(  354) = (   3.1611569   0.9125490   0.4184153), wk =   0.0019531
        k(  355) = (   2.3708677   0.4562745   0.4602566), wk =   0.0019531
        k(  356) = (   1.5805784   0.0000000   0.5020979), wk =   0.0019531
        k(  357) = (   0.7902892  -0.4562745   0.5439393), wk =   0.0019531
        k(  358) = (   0.0000000  -0.9125490   0.5857806), wk =   0.0019531
        k(  359) = (  -0.7902892  -1.3688235   0.6276220), wk =   0.0019531
        k(  360) = (  -1.5805784  -1.8250979   0.6694633), wk =   0.0019531
        k(  361) = (   3.9514461   2.2813724   0.4184157), wk =   0.0019531
        k(  362) = (   3.1611569   1.8250979   0.4602571), wk =   0.0019531
        k(  363) = (   2.3708677   1.3688235   0.5020984), wk =   0.0019531
        k(  364) = (   1.5805784   0.9125490   0.5439397), wk =   0.0019531
        k(  365) = (   0.7902892   0.4562745   0.5857811), wk =   0.0019531
        k(  366) = (   0.0000000   0.0000000   0.6276224), wk =   0.0019531
        k(  367) = (  -0.7902892  -0.4562745   0.6694638), wk =   0.0019531
        k(  368) = (  -1.5805784  -0.9125490   0.7113051), wk =   0.0019531
        k(  369) = (   3.9514461   3.1939214   0.4602575), wk =   0.0019531
        k(  370) = (   3.1611569   2.7376469   0.5020989), wk =   0.0019531
        k(  371) = (   2.3708677   2.2813724   0.5439402), wk =   0.0019531
        k(  372) = (   1.5805784   1.8250979   0.5857815), wk =   0.0019531
        k(  373) = (   0.7902892   1.3688235   0.6276229), wk =   0.0019531
        k(  374) = (   0.0000000   0.9125490   0.6694642), wk =   0.0019531
        k(  375) = (  -0.7902892   0.4562745   0.7113056), wk =   0.0019531
        k(  376) = (  -1.5805784   0.0000000   0.7531469), wk =   0.0019531
        k(  377) = (   3.9514461   4.1064704   0.5020993), wk =   0.0019531
        k(  378) = (   3.1611569   3.6501959   0.5439407), wk =   0.0019531
        k(  379) = (   2.3708677   3.1939214   0.5857820), wk =   0.0019531
        k(  380) = (   1.5805784   2.7376469   0.6276234), wk =   0.0019531
        k(  381) = (   0.7902892   2.2813724   0.6694647), wk =   0.0019531
        k(  382) = (   0.0000000   1.8250979   0.7113060), wk =   0.0019531
        k(  383) = (  -0.7902892   1.3688235   0.7531474), wk =   0.0019531
        k(  384) = (  -1.5805784   0.9125490   0.7949887), wk =   0.0019531
        k(  385) = (   4.7417353  -2.7376469   0.2510481), wk =   0.0019531
        k(  386) = (   3.9514461  -3.1939214   0.2928894), wk =   0.0019531
        k(  387) = (   3.1611569  -3.6501959   0.3347307), wk =   0.0019531
        k(  388) = (   2.3708677  -4.1064704   0.3765721), wk =   0.0019531
        k(  389) = (   1.5805784  -4.5627449   0.4184134), wk =   0.0019531
        k(  390) = (   0.7902892  -5.0190193   0.4602548), wk =   0.0019531
        k(  391) = (   0.0000000  -5.4752938   0.5020961), wk =   0.0019531
        k(  392) = (  -0.7902892  -5.9315683   0.5439375), wk =   0.0019531
        k(  393) = (   4.7417353  -1.8250979   0.2928899), wk =   0.0019531
        k(  394) = (   3.9514461  -2.2813724   0.3347312), wk =   0.0019531
        k(  395) = (   3.1611569  -2.7376469   0.3765725), wk =   0.0019531
        k(  396) = (   2.3708677  -3.1939214   0.4184139), wk =   0.0019531
        k(  397) = (   1.5805784  -3.6501959   0.4602552), wk =   0.0019531
        k(  398) = (   0.7902892  -4.1064704   0.5020966), wk =   0.0019531
        k(  399) = (   0.0000000  -4.5627449   0.5439379), wk =   0.0019531
        k(  400) = (  -0.7902892  -5.0190193   0.5857793), wk =   0.0019531
        k(  401) = (   4.7417353  -0.9125490   0.3347317), wk =   0.0019531
        k(  402) = (   3.9514461  -1.3688235   0.3765730), wk =   0.0019531
        k(  403) = (   3.1611569  -1.8250979   0.4184143), wk =   0.0019531
        k(  404) = (   2.3708677  -2.2813724   0.4602557), wk =   0.0019531
        k(  405) = (   1.5805784  -2.7376469   0.5020970), wk =   0.0019531
        k(  406) = (   0.7902892  -3.1939214   0.5439384), wk =   0.0019531
        k(  407) = (   0.0000000  -3.6501959   0.5857797), wk =   0.0019531
        k(  408) = (  -0.7902892  -4.1064704   0.6276211), wk =   0.0019531
        k(  409) = (   4.7417353   0.0000000   0.3765735), wk =   0.0019531
        k(  410) = (   3.9514461  -0.4562745   0.4184148), wk =   0.0019531
        k(  411) = (   3.1611569  -0.9125490   0.4602561), wk =   0.0019531
        k(  412) = (   2.3708677  -1.3688235   0.5020975), wk =   0.0019531
        k(  413) = (   1.5805784  -1.8250979   0.5439388), wk =   0.0019531
        k(  414) = (   0.7902892  -2.2813724   0.5857802), wk =   0.0019531
        k(  415) = (   0.0000000  -2.7376469   0.6276215), wk =   0.0019531
        k(  416) = (  -0.7902892  -3.1939214   0.6694629), wk =   0.0019531
        k(  417) = (   4.7417353   0.9125490   0.4184153), wk =   0.0019531
        k(  418) = (   3.9514461   0.4562745   0.4602566), wk =   0.0019531
        k(  419) = (   3.1611569   0.0000000   0.5020979), wk =   0.0019531
        k(  420) = (   2.3708677  -0.4562745   0.5439393), wk =   0.0019531
        k(  421) = (   1.5805784  -0.9125490   0.5857806), wk =   0.0019531
        k(  422) = (   0.7902892  -1.3688235   0.6276220), wk =   0.0019531
        k(  423) = (   0.0000000  -1.8250979   0.6694633), wk =   0.0019531
        k(  424) = (  -0.7902892  -2.2813724   0.7113047), wk =   0.0019531
        k(  425) = (   4.7417353   1.8250979   0.4602571), wk =   0.0019531
        k(  426) = (   3.9514461   1.3688235   0.5020984), wk =   0.0019531
        k(  427) = (   3.1611569   0.9125490   0.5439397), wk =   0.0019531
        k(  428) = (   2.3708677   0.4562745   0.5857811), wk =   0.0019531
        k(  429) = (   1.5805784  -0.0000000   0.6276224), wk =   0.0019531
        k(  430) = (   0.7902892  -0.4562745   0.6694638), wk =   0.0019531
        k(  431) = (   0.0000000  -0.9125490   0.7113051), wk =   0.0019531
        k(  432) = (  -0.7902892  -1.3688235   0.7531465), wk =   0.0019531
        k(  433) = (   4.7417353   2.7376469   0.5020989), wk =   0.0019531
        k(  434) = (   3.9514461   2.2813724   0.5439402), wk =   0.0019531
        k(  435) = (   3.1611569   1.8250979   0.5857815), wk =   0.0019531
        k(  436) = (   2.3708677   1.3688235   0.6276229), wk =   0.0019531
        k(  437) = (   1.5805784   0.9125490   0.6694642), wk =   0.0019531
        k(  438) = (   0.7902892   0.4562745   0.7113056), wk =   0.0019531
        k(  439) = (   0.0000000   0.0000000   0.7531469), wk =   0.0019531
        k(  440) = (  -0.7902892  -0.4562745   0.7949883), wk =   0.0019531
        k(  441) = (   4.7417353   3.6501959   0.5439407), wk =   0.0019531
        k(  442) = (   3.9514461   3.1939214   0.5857820), wk =   0.0019531
        k(  443) = (   3.1611569   2.7376469   0.6276234), wk =   0.0019531
        k(  444) = (   2.3708677   2.2813724   0.6694647), wk =   0.0019531
        k(  445) = (   1.5805784   1.8250979   0.7113060), wk =   0.0019531
        k(  446) = (   0.7902892   1.3688235   0.7531474), wk =   0.0019531
        k(  447) = (   0.0000000   0.9125490   0.7949887), wk =   0.0019531
        k(  448) = (  -0.7902892   0.4562745   0.8368301), wk =   0.0019531
        k(  449) = (   5.5320245  -3.1939214   0.2928894), wk =   0.0019531
        k(  450) = (   4.7417353  -3.6501959   0.3347307), wk =   0.0019531
        k(  451) = (   3.9514461  -4.1064704   0.3765721), wk =   0.0019531
        k(  452) = (   3.1611569  -4.5627449   0.4184134), wk =   0.0019531
        k(  453) = (   2.3708677  -5.0190193   0.4602548), wk =   0.0019531
        k(  454) = (   1.5805784  -5.4752938   0.5020961), wk =   0.0019531
        k(  455) = (   0.7902892  -5.9315683   0.5439375), wk =   0.0019531
        k(  456) = (   0.0000000  -6.3878428   0.5857788), wk =   0.0019531
        k(  457) = (   5.5320245  -2.2813724   0.3347312), wk =   0.0019531
        k(  458) = (   4.7417353  -2.7376469   0.3765725), wk =   0.0019531
        k(  459) = (   3.9514461  -3.1939214   0.4184139), wk =   0.0019531
        k(  460) = (   3.1611569  -3.6501959   0.4602552), wk =   0.0019531
        k(  461) = (   2.3708677  -4.1064704   0.5020966), wk =   0.0019531
        k(  462) = (   1.5805784  -4.5627449   0.5439379), wk =   0.0019531
        k(  463) = (   0.7902892  -5.0190193   0.5857793), wk =   0.0019531
        k(  464) = (   0.0000000  -5.4752938   0.6276206), wk =   0.0019531
        k(  465) = (   5.5320245  -1.3688235   0.3765730), wk =   0.0019531
        k(  466) = (   4.7417353  -1.8250979   0.4184143), wk =   0.0019531
        k(  467) = (   3.9514461  -2.2813724   0.4602557), wk =   0.0019531
        k(  468) = (   3.1611569  -2.7376469   0.5020970), wk =   0.0019531
        k(  469) = (   2.3708677  -3.1939214   0.5439384), wk =   0.0019531
        k(  470) = (   1.5805784  -3.6501959   0.5857797), wk =   0.0019531
        k(  471) = (   0.7902892  -4.1064704   0.6276211), wk =   0.0019531
        k(  472) = (   0.0000000  -4.5627449   0.6694624), wk =   0.0019531
        k(  473) = (   5.5320245  -0.4562745   0.4184148), wk =   0.0019531
        k(  474) = (   4.7417353  -0.9125490   0.4602561), wk =   0.0019531
        k(  475) = (   3.9514461  -1.3688235   0.5020975), wk =   0.0019531
        k(  476) = (   3.1611569  -1.8250979   0.5439388), wk =   0.0019531
        k(  477) = (   2.3708677  -2.2813724   0.5857802), wk =   0.0019531
        k(  478) = (   1.5805784  -2.7376469   0.6276215), wk =   0.0019531
        k(  479) = (   0.7902892  -3.1939214   0.6694629), wk =   0.0019531
        k(  480) = (   0.0000000  -3.6501959   0.7113042), wk =   0.0019531
        k(  481) = (   5.5320245   0.4562745   0.4602566), wk =   0.0019531
        k(  482) = (   4.7417353  -0.0000000   0.5020979), wk =   0.0019531
        k(  483) = (   3.9514461  -0.4562745   0.5439393), wk =   0.0019531
        k(  484) = (   3.1611569  -0.9125490   0.5857806), wk =   0.0019531
        k(  485) = (   2.3708677  -1.3688235   0.6276220), wk =   0.0019531
        k(  486) = (   1.5805784  -1.8250979   0.6694633), wk =   0.0019531
        k(  487) = (   0.7902892  -2.2813724   0.7113047), wk =   0.0019531
        k(  488) = (   0.0000000  -2.7376469   0.7531460), wk =   0.0019531
        k(  489) = (   5.5320245   1.3688235   0.5020984), wk =   0.0019531
        k(  490) = (   4.7417353   0.9125490   0.5439397), wk =   0.0019531
        k(  491) = (   3.9514461   0.4562745   0.5857811), wk =   0.0019531
        k(  492) = (   3.1611569  -0.0000000   0.6276224), wk =   0.0019531
        k(  493) = (   2.3708677  -0.4562745   0.6694638), wk =   0.0019531
        k(  494) = (   1.5805784  -0.9125490   0.7113051), wk =   0.0019531
        k(  495) = (   0.7902892  -1.3688235   0.7531465), wk =   0.0019531
        k(  496) = (   0.0000000  -1.8250979   0.7949878), wk =   0.0019531
        k(  497) = (   5.5320245   2.2813724   0.5439402), wk =   0.0019531
        k(  498) = (   4.7417353   1.8250979   0.5857815), wk =   0.0019531
        k(  499) = (   3.9514461   1.3688235   0.6276229), wk =   0.0019531
        k(  500) = (   3.1611569   0.9125490   0.6694642), wk =   0.0019531
        k(  501) = (   2.3708677   0.4562745   0.7113056), wk =   0.0019531
        k(  502) = (   1.5805784   0.0000000   0.7531469), wk =   0.0019531
        k(  503) = (   0.7902892  -0.4562745   0.7949883), wk =   0.0019531
        k(  504) = (   0.0000000  -0.9125490   0.8368296), wk =   0.0019531
        k(  505) = (   5.5320245   3.1939214   0.5857820), wk =   0.0019531
        k(  506) = (   4.7417353   2.7376469   0.6276234), wk =   0.0019531
        k(  507) = (   3.9514461   2.2813724   0.6694647), wk =   0.0019531
        k(  508) = (   3.1611569   1.8250979   0.7113060), wk =   0.0019531
        k(  509) = (   2.3708677   1.3688235   0.7531474), wk =   0.0019531
        k(  510) = (   1.5805784   0.9125490   0.7949887), wk =   0.0019531
        k(  511) = (   0.7902892   0.4562745   0.8368301), wk =   0.0019531
        k(  512) = (   0.0000000   0.0000000   0.8786714), wk =   0.0019531

                       cryst. coord.
        k(    1) = (   0.0000000   0.0000000   0.0000000), wk =   0.0019531
        k(    2) = (   0.0000000   0.0000000   0.1250000), wk =   0.0019531
        k(    3) = (   0.0000000   0.0000000   0.2500000), wk =   0.0019531
        k(    4) = (   0.0000000   0.0000000   0.3750000), wk =   0.0019531
        k(    5) = (   0.0000000   0.0000000   0.5000000), wk =   0.0019531
        k(    6) = (   0.0000000   0.0000000   0.6250000), wk =   0.0019531
        k(    7) = (   0.0000000   0.0000000   0.7500000), wk =   0.0019531
        k(    8) = (   0.0000000  -0.0000000   0.8750000), wk =   0.0019531
        k(    9) = (   0.0000000   0.1250000   0.0000000), wk =   0.0019531
        k(   10) = (   0.0000000   0.1250000   0.1250000), wk =   0.0019531
        k(   11) = (   0.0000000   0.1250000   0.2500000), wk =   0.0019531
        k(   12) = (   0.0000000   0.1250000   0.3750000), wk =   0.0019531
        k(   13) = (   0.0000000   0.1250000   0.5000000), wk =   0.0019531
        k(   14) = (   0.0000000   0.1250000   0.6250000), wk =   0.0019531
        k(   15) = (   0.0000000   0.1250000   0.7500000), wk =   0.0019531
        k(   16) = (   0.0000000   0.1250000   0.8750000), wk =   0.0019531
        k(   17) = (   0.0000000   0.2500000   0.0000000), wk =   0.0019531
        k(   18) = (   0.0000000   0.2500000   0.1250000), wk =   0.0019531
        k(   19) = (   0.0000000   0.2500000   0.2500000), wk =   0.0019531
        k(   20) = (   0.0000000   0.2500000   0.3750000), wk =   0.0019531
        k(   21) = (   0.0000000   0.2500000   0.5000000), wk =   0.0019531
        k(   22) = (   0.0000000   0.2500000   0.6250000), wk =   0.0019531
        k(   23) = (   0.0000000   0.2500000   0.7500000), wk =   0.0019531
        k(   24) = (   0.0000000   0.2500000   0.8750000), wk =   0.0019531
        k(   25) = (  -0.0000000   0.3750000  -0.0000000), wk =   0.0019531
        k(   26) = (   0.0000000   0.3750000   0.1250000), wk =   0.0019531
        k(   27) = (   0.0000000   0.3750000   0.2500000), wk =   0.0019531
        k(   28) = (   0.0000000   0.3750000   0.3750000), wk =   0.0019531
        k(   29) = (   0.0000000   0.3750000   0.5000000), wk =   0.0019531
        k(   30) = (   0.0000000   0.3750000   0.6250000), wk =   0.0019531
        k(   31) = (   0.0000000   0.3750000   0.7500000), wk =   0.0019531
        k(   32) = (   0.0000000   0.3750000   0.8750000), wk =   0.0019531
        k(   33) = (   0.0000000   0.5000000   0.0000000), wk =   0.0019531
        k(   34) = (   0.0000000   0.5000000   0.1250000), wk =   0.0019531
        k(   35) = (   0.0000000   0.5000000   0.2500000), wk =   0.0019531
        k(   36) = (   0.0000000   0.5000000   0.3750000), wk =   0.0019531
        k(   37) = (   0.0000000   0.5000000   0.5000000), wk =   0.0019531
        k(   38) = (   0.0000000   0.5000000   0.6250000), wk =   0.0019531
        k(   39) = (   0.0000000   0.5000000   0.7500000), wk =   0.0019531
        k(   40) = (   0.0000000   0.5000000   0.8750000), wk =   0.0019531
        k(   41) = (   0.0000000   0.6250000   0.0000000), wk =   0.0019531
        k(   42) = (   0.0000000   0.6250000   0.1250000), wk =   0.0019531
        k(   43) = (   0.0000000   0.6250000   0.2500000), wk =   0.0019531
        k(   44) = (   0.0000000   0.6250000   0.3750000), wk =   0.0019531
        k(   45) = (   0.0000000   0.6250000   0.5000000), wk =   0.0019531
        k(   46) = (   0.0000000   0.6250000   0.6250000), wk =   0.0019531
        k(   47) = (   0.0000000   0.6250000   0.7500000), wk =   0.0019531
        k(   48) = (   0.0000000   0.6250000   0.8750000), wk =   0.0019531
        k(   49) = (  -0.0000000   0.7500000  -0.0000000), wk =   0.0019531
        k(   50) = (   0.0000000   0.7500000   0.1250000), wk =   0.0019531
        k(   51) = (   0.0000000   0.7500000   0.2500000), wk =   0.0019531
        k(   52) = (   0.0000000   0.7500000   0.3750000), wk =   0.0019531
        k(   53) = (   0.0000000   0.7500000   0.5000000), wk =   0.0019531
        k(   54) = (   0.0000000   0.7500000   0.6250000), wk =   0.0019531
        k(   55) = (   0.0000000   0.7500000   0.7500000), wk =   0.0019531
        k(   56) = (  -0.0000000   0.7500000   0.8750000), wk =   0.0019531
        k(   57) = (   0.0000000   0.8750000   0.0000000), wk =   0.0019531
        k(   58) = (   0.0000000   0.8750000   0.1250000), wk =   0.0019531
        k(   59) = (  -0.0000000   0.8750000   0.2500000), wk =   0.0019531
        k(   60) = (   0.0000000   0.8750000   0.3750000), wk =   0.0019531
        k(   61) = (   0.0000000   0.8750000   0.5000000), wk =   0.0019531
        k(   62) = (   0.0000000   0.8750000   0.6250000), wk =   0.0019531
        k(   63) = (   0.0000000   0.8750000   0.7500000), wk =   0.0019531
        k(   64) = (   0.0000000   0.8750000   0.8750000), wk =   0.0019531
        k(   65) = (   0.1250000   0.0000000   0.0000000), wk =   0.0019531
        k(   66) = (   0.1250000   0.0000000   0.1250000), wk =   0.0019531
        k(   67) = (   0.1250000   0.0000000   0.2500000), wk =   0.0019531
        k(   68) = (   0.1250000   0.0000000   0.3750000), wk =   0.0019531
        k(   69) = (   0.1250000   0.0000000   0.5000000), wk =   0.0019531
        k(   70) = (   0.1250000   0.0000000   0.6250000), wk =   0.0019531
        k(   71) = (   0.1250000   0.0000000   0.7500000), wk =   0.0019531
        k(   72) = (   0.1250000   0.0000000   0.8750000), wk =   0.0019531
        k(   73) = (   0.1250000   0.1250000   0.0000000), wk =   0.0019531
        k(   74) = (   0.1250000   0.1250000   0.1250000), wk =   0.0019531
        k(   75) = (   0.1250000   0.1250000   0.2500000), wk =   0.0019531
        k(   76) = (   0.1250000   0.1250000   0.3750000), wk =   0.0019531
        k(   77) = (   0.1250000   0.1250000   0.5000000), wk =   0.0019531
        k(   78) = (   0.1250000   0.1250000   0.6250000), wk =   0.0019531
        k(   79) = (   0.1250000   0.1250000   0.7500000), wk =   0.0019531
        k(   80) = (   0.1250000   0.1250000   0.8750000), wk =   0.0019531
        k(   81) = (   0.1250000   0.2500000   0.0000000), wk =   0.0019531
        k(   82) = (   0.1250000   0.2500000   0.1250000), wk =   0.0019531
        k(   83) = (   0.1250000   0.2500000   0.2500000), wk =   0.0019531
        k(   84) = (   0.1250000   0.2500000   0.3750000), wk =   0.0019531
        k(   85) = (   0.1250000   0.2500000   0.5000000), wk =   0.0019531
        k(   86) = (   0.1250000   0.2500000   0.6250000), wk =   0.0019531
        k(   87) = (   0.1250000   0.2500000   0.7500000), wk =   0.0019531
        k(   88) = (   0.1250000   0.2500000   0.8750000), wk =   0.0019531
        k(   89) = (   0.1250000   0.3750000   0.0000000), wk =   0.0019531
        k(   90) = (   0.1250000   0.3750000   0.1250000), wk =   0.0019531
        k(   91) = (   0.1250000   0.3750000   0.2500000), wk =   0.0019531
        k(   92) = (   0.1250000   0.3750000   0.3750000), wk =   0.0019531
        k(   93) = (   0.1250000   0.3750000   0.5000000), wk =   0.0019531
        k(   94) = (   0.1250000   0.3750000   0.6250000), wk =   0.0019531
        k(   95) = (   0.1250000   0.3750000   0.7500000), wk =   0.0019531
        k(   96) = (   0.1250000   0.3750000   0.8750000), wk =   0.0019531
        k(   97) = (   0.1250000   0.5000000   0.0000000), wk =   0.0019531
        k(   98) = (   0.1250000   0.5000000   0.1250000), wk =   0.0019531
        k(   99) = (   0.1250000   0.5000000   0.2500000), wk =   0.0019531
        k(  100) = (   0.1250000   0.5000000   0.3750000), wk =   0.0019531
        k(  101) = (   0.1250000   0.5000000   0.5000000), wk =   0.0019531
        k(  102) = (   0.1250000   0.5000000   0.6250000), wk =   0.0019531
        k(  103) = (   0.1250000   0.5000000   0.7500000), wk =   0.0019531
        k(  104) = (   0.1250000   0.5000000   0.8750000), wk =   0.0019531
        k(  105) = (   0.1250000   0.6250000   0.0000000), wk =   0.0019531
        k(  106) = (   0.1250000   0.6250000   0.1250000), wk =   0.0019531
        k(  107) = (   0.1250000   0.6250000   0.2500000), wk =   0.0019531
        k(  108) = (   0.1250000   0.6250000   0.3750000), wk =   0.0019531
        k(  109) = (   0.1250000   0.6250000   0.5000000), wk =   0.0019531
        k(  110) = (   0.1250000   0.6250000   0.6250000), wk =   0.0019531
        k(  111) = (   0.1250000   0.6250000   0.7500000), wk =   0.0019531
        k(  112) = (   0.1250000   0.6250000   0.8750000), wk =   0.0019531
        k(  113) = (   0.1250000   0.7500000   0.0000000), wk =   0.0019531
        k(  114) = (   0.1250000   0.7500000   0.1250000), wk =   0.0019531
        k(  115) = (   0.1250000   0.7500000   0.2500000), wk =   0.0019531
        k(  116) = (   0.1250000   0.7500000   0.3750000), wk =   0.0019531
        k(  117) = (   0.1250000   0.7500000   0.5000000), wk =   0.0019531
        k(  118) = (   0.1250000   0.7500000   0.6250000), wk =   0.0019531
        k(  119) = (   0.1250000   0.7500000   0.7500000), wk =   0.0019531
        k(  120) = (   0.1250000   0.7500000   0.8750000), wk =   0.0019531
        k(  121) = (   0.1250000   0.8750000   0.0000000), wk =   0.0019531
        k(  122) = (   0.1250000   0.8750000   0.1250000), wk =   0.0019531
        k(  123) = (   0.1250000   0.8750000   0.2500000), wk =   0.0019531
        k(  124) = (   0.1250000   0.8750000   0.3750000), wk =   0.0019531
        k(  125) = (   0.1250000   0.8750000   0.5000000), wk =   0.0019531
        k(  126) = (   0.1250000   0.8750000   0.6250000), wk =   0.0019531
        k(  127) = (   0.1250000   0.8750000   0.7500000), wk =   0.0019531
        k(  128) = (   0.1250000   0.8750000   0.8750000), wk =   0.0019531
        k(  129) = (   0.2500000   0.0000000   0.0000000), wk =   0.0019531
        k(  130) = (   0.2500000   0.0000000   0.1250000), wk =   0.0019531
        k(  131) = (   0.2500000   0.0000000   0.2500000), wk =   0.0019531
        k(  132) = (   0.2500000   0.0000000   0.3750000), wk =   0.0019531
        k(  133) = (   0.2500000   0.0000000   0.5000000), wk =   0.0019531
        k(  134) = (   0.2500000   0.0000000   0.6250000), wk =   0.0019531
        k(  135) = (   0.2500000   0.0000000   0.7500000), wk =   0.0019531
        k(  136) = (   0.2500000   0.0000000   0.8750000), wk =   0.0019531
        k(  137) = (   0.2500000   0.1250000   0.0000000), wk =   0.0019531
        k(  138) = (   0.2500000   0.1250000   0.1250000), wk =   0.0019531
        k(  139) = (   0.2500000   0.1250000   0.2500000), wk =   0.0019531
        k(  140) = (   0.2500000   0.1250000   0.3750000), wk =   0.0019531
        k(  141) = (   0.2500000   0.1250000   0.5000000), wk =   0.0019531
        k(  142) = (   0.2500000   0.1250000   0.6250000), wk =   0.0019531
        k(  143) = (   0.2500000   0.1250000   0.7500000), wk =   0.0019531
        k(  144) = (   0.2500000   0.1250000   0.8750000), wk =   0.0019531
        k(  145) = (   0.2500000   0.2500000   0.0000000), wk =   0.0019531
        k(  146) = (   0.2500000   0.2500000   0.1250000), wk =   0.0019531
        k(  147) = (   0.2500000   0.2500000   0.2500000), wk =   0.0019531
        k(  148) = (   0.2500000   0.2500000   0.3750000), wk =   0.0019531
        k(  149) = (   0.2500000   0.2500000   0.5000000), wk =   0.0019531
        k(  150) = (   0.2500000   0.2500000   0.6250000), wk =   0.0019531
        k(  151) = (   0.2500000   0.2500000   0.7500000), wk =   0.0019531
        k(  152) = (   0.2500000   0.2500000   0.8750000), wk =   0.0019531
        k(  153) = (   0.2500000   0.3750000   0.0000000), wk =   0.0019531
        k(  154) = (   0.2500000   0.3750000   0.1250000), wk =   0.0019531
        k(  155) = (   0.2500000   0.3750000   0.2500000), wk =   0.0019531
        k(  156) = (   0.2500000   0.3750000   0.3750000), wk =   0.0019531
        k(  157) = (   0.2500000   0.3750000   0.5000000), wk =   0.0019531
        k(  158) = (   0.2500000   0.3750000   0.6250000), wk =   0.0019531
        k(  159) = (   0.2500000   0.3750000   0.7500000), wk =   0.0019531
        k(  160) = (   0.2500000   0.3750000   0.8750000), wk =   0.0019531
        k(  161) = (   0.2500000   0.5000000   0.0000000), wk =   0.0019531
        k(  162) = (   0.2500000   0.5000000   0.1250000), wk =   0.0019531
        k(  163) = (   0.2500000   0.5000000   0.2500000), wk =   0.0019531
        k(  164) = (   0.2500000   0.5000000   0.3750000), wk =   0.0019531
        k(  165) = (   0.2500000   0.5000000   0.5000000), wk =   0.0019531
        k(  166) = (   0.2500000   0.5000000   0.6250000), wk =   0.0019531
        k(  167) = (   0.2500000   0.5000000   0.7500000), wk =   0.0019531
        k(  168) = (   0.2500000   0.5000000   0.8750000), wk =   0.0019531
        k(  169) = (   0.2500000   0.6250000   0.0000000), wk =   0.0019531
        k(  170) = (   0.2500000   0.6250000   0.1250000), wk =   0.0019531
        k(  171) = (   0.2500000   0.6250000   0.2500000), wk =   0.0019531
        k(  172) = (   0.2500000   0.6250000   0.3750000), wk =   0.0019531
        k(  173) = (   0.2500000   0.6250000   0.5000000), wk =   0.0019531
        k(  174) = (   0.2500000   0.6250000   0.6250000), wk =   0.0019531
        k(  175) = (   0.2500000   0.6250000   0.7500000), wk =   0.0019531
        k(  176) = (   0.2500000   0.6250000   0.8750000), wk =   0.0019531
        k(  177) = (   0.2500000   0.7500000   0.0000000), wk =   0.0019531
        k(  178) = (   0.2500000   0.7500000   0.1250000), wk =   0.0019531
        k(  179) = (   0.2500000   0.7500000   0.2500000), wk =   0.0019531
        k(  180) = (   0.2500000   0.7500000   0.3750000), wk =   0.0019531
        k(  181) = (   0.2500000   0.7500000   0.5000000), wk =   0.0019531
        k(  182) = (   0.2500000   0.7500000   0.6250000), wk =   0.0019531
        k(  183) = (   0.2500000   0.7500000   0.7500000), wk =   0.0019531
        k(  184) = (   0.2500000   0.7500000   0.8750000), wk =   0.0019531
        k(  185) = (   0.2500000   0.8750000  -0.0000000), wk =   0.0019531
        k(  186) = (   0.2500000   0.8750000   0.1250000), wk =   0.0019531
        k(  187) = (   0.2500000   0.8750000   0.2500000), wk =   0.0019531
        k(  188) = (   0.2500000   0.8750000   0.3750000), wk =   0.0019531
        k(  189) = (   0.2500000   0.8750000   0.5000000), wk =   0.0019531
        k(  190) = (   0.2500000   0.8750000   0.6250000), wk =   0.0019531
        k(  191) = (   0.2500000   0.8750000   0.7500000), wk =   0.0019531
        k(  192) = (   0.2500000   0.8750000   0.8750000), wk =   0.0019531
        k(  193) = (   0.3750000   0.0000000   0.0000000), wk =   0.0019531
        k(  194) = (   0.3750000   0.0000000   0.1250000), wk =   0.0019531
        k(  195) = (   0.3750000   0.0000000   0.2500000), wk =   0.0019531
        k(  196) = (   0.3750000   0.0000000   0.3750000), wk =   0.0019531
        k(  197) = (   0.3750000   0.0000000   0.5000000), wk =   0.0019531
        k(  198) = (   0.3750000   0.0000000   0.6250000), wk =   0.0019531
        k(  199) = (   0.3750000   0.0000000   0.7500000), wk =   0.0019531
        k(  200) = (   0.3750000  -0.0000000   0.8750000), wk =   0.0019531
        k(  201) = (   0.3750000   0.1250000   0.0000000), wk =   0.0019531
        k(  202) = (   0.3750000   0.1250000   0.1250000), wk =   0.0019531
        k(  203) = (   0.3750000   0.1250000   0.2500000), wk =   0.0019531
        k(  204) = (   0.3750000   0.1250000   0.3750000), wk =   0.0019531
        k(  205) = (   0.3750000   0.1250000   0.5000000), wk =   0.0019531
        k(  206) = (   0.3750000   0.1250000   0.6250000), wk =   0.0019531
        k(  207) = (   0.3750000   0.1250000   0.7500000), wk =   0.0019531
        k(  208) = (   0.3750000   0.1250000   0.8750000), wk =   0.0019531
        k(  209) = (   0.3750000   0.2500000   0.0000000), wk =   0.0019531
        k(  210) = (   0.3750000   0.2500000   0.1250000), wk =   0.0019531
        k(  211) = (   0.3750000   0.2500000   0.2500000), wk =   0.0019531
        k(  212) = (   0.3750000   0.2500000   0.3750000), wk =   0.0019531
        k(  213) = (   0.3750000   0.2500000   0.5000000), wk =   0.0019531
        k(  214) = (   0.3750000   0.2500000   0.6250000), wk =   0.0019531
        k(  215) = (   0.3750000   0.2500000   0.7500000), wk =   0.0019531
        k(  216) = (   0.3750000   0.2500000   0.8750000), wk =   0.0019531
        k(  217) = (   0.3750000   0.3750000   0.0000000), wk =   0.0019531
        k(  218) = (   0.3750000   0.3750000   0.1250000), wk =   0.0019531
        k(  219) = (   0.3750000   0.3750000   0.2500000), wk =   0.0019531
        k(  220) = (   0.3750000   0.3750000   0.3750000), wk =   0.0019531
        k(  221) = (   0.3750000   0.3750000   0.5000000), wk =   0.0019531
        k(  222) = (   0.3750000   0.3750000   0.6250000), wk =   0.0019531
        k(  223) = (   0.3750000   0.3750000   0.7500000), wk =   0.0019531
        k(  224) = (   0.3750000   0.3750000   0.8750000), wk =   0.0019531
        k(  225) = (   0.3750000   0.5000000   0.0000000), wk =   0.0019531
        k(  226) = (   0.3750000   0.5000000   0.1250000), wk =   0.0019531
        k(  227) = (   0.3750000   0.5000000   0.2500000), wk =   0.0019531
        k(  228) = (   0.3750000   0.5000000   0.3750000), wk =   0.0019531
        k(  229) = (   0.3750000   0.5000000   0.5000000), wk =   0.0019531
        k(  230) = (   0.3750000   0.5000000   0.6250000), wk =   0.0019531
        k(  231) = (   0.3750000   0.5000000   0.7500000), wk =   0.0019531
        k(  232) = (   0.3750000   0.5000000   0.8750000), wk =   0.0019531
        k(  233) = (   0.3750000   0.6250000   0.0000000), wk =   0.0019531
        k(  234) = (   0.3750000   0.6250000   0.1250000), wk =   0.0019531
        k(  235) = (   0.3750000   0.6250000   0.2500000), wk =   0.0019531
        k(  236) = (   0.3750000   0.6250000   0.3750000), wk =   0.0019531
        k(  237) = (   0.3750000   0.6250000   0.5000000), wk =   0.0019531
        k(  238) = (   0.3750000   0.6250000   0.6250000), wk =   0.0019531
        k(  239) = (   0.3750000   0.6250000   0.7500000), wk =   0.0019531
        k(  240) = (   0.3750000   0.6250000   0.8750000), wk =   0.0019531
        k(  241) = (   0.3750000   0.7500000   0.0000000), wk =   0.0019531
        k(  242) = (   0.3750000   0.7500000   0.1250000), wk =   0.0019531
        k(  243) = (   0.3750000   0.7500000   0.2500000), wk =   0.0019531
        k(  244) = (   0.3750000   0.7500000   0.3750000), wk =   0.0019531
        k(  245) = (   0.3750000   0.7500000   0.5000000), wk =   0.0019531
        k(  246) = (   0.3750000   0.7500000   0.6250000), wk =   0.0019531
        k(  247) = (   0.3750000   0.7500000   0.7500000), wk =   0.0019531
        k(  248) = (   0.3750000   0.7500000   0.8750000), wk =   0.0019531
        k(  249) = (   0.3750000   0.8750000   0.0000000), wk =   0.0019531
        k(  250) = (   0.3750000   0.8750000   0.1250000), wk =   0.0019531
        k(  251) = (   0.3750000   0.8750000   0.2500000), wk =   0.0019531
        k(  252) = (   0.3750000   0.8750000   0.3750000), wk =   0.0019531
        k(  253) = (   0.3750000   0.8750000   0.5000000), wk =   0.0019531
        k(  254) = (   0.3750000   0.8750000   0.6250000), wk =   0.0019531
        k(  255) = (   0.3750000   0.8750000   0.7500000), wk =   0.0019531
        k(  256) = (   0.3750000   0.8750000   0.8750000), wk =   0.0019531
        k(  257) = (   0.5000000   0.0000000   0.0000000), wk =   0.0019531
        k(  258) = (   0.5000000   0.0000000   0.1250000), wk =   0.0019531
        k(  259) = (   0.5000000   0.0000000   0.2500000), wk =   0.0019531
        k(  260) = (   0.5000000   0.0000000   0.3750000), wk =   0.0019531
        k(  261) = (   0.5000000   0.0000000   0.5000000), wk =   0.0019531
        k(  262) = (   0.5000000   0.0000000   0.6250000), wk =   0.0019531
        k(  263) = (   0.5000000   0.0000000   0.7500000), wk =   0.0019531
        k(  264) = (   0.5000000   0.0000000   0.8750000), wk =   0.0019531
        k(  265) = (   0.5000000   0.1250000   0.0000000), wk =   0.0019531
        k(  266) = (   0.5000000   0.1250000   0.1250000), wk =   0.0019531
        k(  267) = (   0.5000000   0.1250000   0.2500000), wk =   0.0019531
        k(  268) = (   0.5000000   0.1250000   0.3750000), wk =   0.0019531
        k(  269) = (   0.5000000   0.1250000   0.5000000), wk =   0.0019531
        k(  270) = (   0.5000000   0.1250000   0.6250000), wk =   0.0019531
        k(  271) = (   0.5000000   0.1250000   0.7500000), wk =   0.0019531
        k(  272) = (   0.5000000   0.1250000   0.8750000), wk =   0.0019531
        k(  273) = (   0.5000000   0.2500000   0.0000000), wk =   0.0019531
        k(  274) = (   0.5000000   0.2500000   0.1250000), wk =   0.0019531
        k(  275) = (   0.5000000   0.2500000   0.2500000), wk =   0.0019531
        k(  276) = (   0.5000000   0.2500000   0.3750000), wk =   0.0019531
        k(  277) = (   0.5000000   0.2500000   0.5000000), wk =   0.0019531
        k(  278) = (   0.5000000   0.2500000   0.6250000), wk =   0.0019531
        k(  279) = (   0.5000000   0.2500000   0.7500000), wk =   0.0019531
        k(  280) = (   0.5000000   0.2500000   0.8750000), wk =   0.0019531
        k(  281) = (   0.5000000   0.3750000   0.0000000), wk =   0.0019531
        k(  282) = (   0.5000000   0.3750000   0.1250000), wk =   0.0019531
        k(  283) = (   0.5000000   0.3750000   0.2500000), wk =   0.0019531
        k(  284) = (   0.5000000   0.3750000   0.3750000), wk =   0.0019531
        k(  285) = (   0.5000000   0.3750000   0.5000000), wk =   0.0019531
        k(  286) = (   0.5000000   0.3750000   0.6250000), wk =   0.0019531
        k(  287) = (   0.5000000   0.3750000   0.7500000), wk =   0.0019531
        k(  288) = (   0.5000000   0.3750000   0.8750000), wk =   0.0019531
        k(  289) = (   0.5000000   0.5000000   0.0000000), wk =   0.0019531
        k(  290) = (   0.5000000   0.5000000   0.1250000), wk =   0.0019531
        k(  291) = (   0.5000000   0.5000000   0.2500000), wk =   0.0019531
        k(  292) = (   0.5000000   0.5000000   0.3750000), wk =   0.0019531
        k(  293) = (   0.5000000   0.5000000   0.5000000), wk =   0.0019531
        k(  294) = (   0.5000000   0.5000000   0.6250000), wk =   0.0019531
        k(  295) = (   0.5000000   0.5000000   0.7500000), wk =   0.0019531
        k(  296) = (   0.5000000   0.5000000   0.8750000), wk =   0.0019531
        k(  297) = (   0.5000000   0.6250000   0.0000000), wk =   0.0019531
        k(  298) = (   0.5000000   0.6250000   0.1250000), wk =   0.0019531
        k(  299) = (   0.5000000   0.6250000   0.2500000), wk =   0.0019531
        k(  300) = (   0.5000000   0.6250000   0.3750000), wk =   0.0019531
        k(  301) = (   0.5000000   0.6250000   0.5000000), wk =   0.0019531
        k(  302) = (   0.5000000   0.6250000   0.6250000), wk =   0.0019531
        k(  303) = (   0.5000000   0.6250000   0.7500000), wk =   0.0019531
        k(  304) = (   0.5000000   0.6250000   0.8750000), wk =   0.0019531
        k(  305) = (   0.5000000   0.7500000   0.0000000), wk =   0.0019531
        k(  306) = (   0.5000000   0.7500000   0.1250000), wk =   0.0019531
        k(  307) = (   0.5000000   0.7500000   0.2500000), wk =   0.0019531
        k(  308) = (   0.5000000   0.7500000   0.3750000), wk =   0.0019531
        k(  309) = (   0.5000000   0.7500000   0.5000000), wk =   0.0019531
        k(  310) = (   0.5000000   0.7500000   0.6250000), wk =   0.0019531
        k(  311) = (   0.5000000   0.7500000   0.7500000), wk =   0.0019531
        k(  312) = (   0.5000000   0.7500000   0.8750000), wk =   0.0019531
        k(  313) = (   0.5000000   0.8750000   0.0000000), wk =   0.0019531
        k(  314) = (   0.5000000   0.8750000   0.1250000), wk =   0.0019531
        k(  315) = (   0.5000000   0.8750000   0.2500000), wk =   0.0019531
        k(  316) = (   0.5000000   0.8750000   0.3750000), wk =   0.0019531
        k(  317) = (   0.5000000   0.8750000   0.5000000), wk =   0.0019531
        k(  318) = (   0.5000000   0.8750000   0.6250000), wk =   0.0019531
        k(  319) = (   0.5000000   0.8750000   0.7500000), wk =   0.0019531
        k(  320) = (   0.5000000   0.8750000   0.8750000), wk =   0.0019531
        k(  321) = (   0.6250000   0.0000000   0.0000000), wk =   0.0019531
        k(  322) = (   0.6250000   0.0000000   0.1250000), wk =   0.0019531
        k(  323) = (   0.6250000   0.0000000   0.2500000), wk =   0.0019531
        k(  324) = (   0.6250000   0.0000000   0.3750000), wk =   0.0019531
        k(  325) = (   0.6250000   0.0000000   0.5000000), wk =   0.0019531
        k(  326) = (   0.6250000   0.0000000   0.6250000), wk =   0.0019531
        k(  327) = (   0.6250000   0.0000000   0.7500000), wk =   0.0019531
        k(  328) = (   0.6250000   0.0000000   0.8750000), wk =   0.0019531
        k(  329) = (   0.6250000   0.1250000   0.0000000), wk =   0.0019531
        k(  330) = (   0.6250000   0.1250000   0.1250000), wk =   0.0019531
        k(  331) = (   0.6250000   0.1250000   0.2500000), wk =   0.0019531
        k(  332) = (   0.6250000   0.1250000   0.3750000), wk =   0.0019531
        k(  333) = (   0.6250000   0.1250000   0.5000000), wk =   0.0019531
        k(  334) = (   0.6250000   0.1250000   0.6250000), wk =   0.0019531
        k(  335) = (   0.6250000   0.1250000   0.7500000), wk =   0.0019531
        k(  336) = (   0.6250000   0.1250000   0.8750000), wk =   0.0019531
        k(  337) = (   0.6250000   0.2500000   0.0000000), wk =   0.0019531
        k(  338) = (   0.6250000   0.2500000   0.1250000), wk =   0.0019531
        k(  339) = (   0.6250000   0.2500000   0.2500000), wk =   0.0019531
        k(  340) = (   0.6250000   0.2500000   0.3750000), wk =   0.0019531
        k(  341) = (   0.6250000   0.2500000   0.5000000), wk =   0.0019531
        k(  342) = (   0.6250000   0.2500000   0.6250000), wk =   0.0019531
        k(  343) = (   0.6250000   0.2500000   0.7500000), wk =   0.0019531
        k(  344) = (   0.6250000   0.2500000   0.8750000), wk =   0.0019531
        k(  345) = (   0.6250000   0.3750000   0.0000000), wk =   0.0019531
        k(  346) = (   0.6250000   0.3750000   0.1250000), wk =   0.0019531
        k(  347) = (   0.6250000   0.3750000   0.2500000), wk =   0.0019531
        k(  348) = (   0.6250000   0.3750000   0.3750000), wk =   0.0019531
        k(  349) = (   0.6250000   0.3750000   0.5000000), wk =   0.0019531
        k(  350) = (   0.6250000   0.3750000   0.6250000), wk =   0.0019531
        k(  351) = (   0.6250000   0.3750000   0.7500000), wk =   0.0019531
        k(  352) = (   0.6250000   0.3750000   0.8750000), wk =   0.0019531
        k(  353) = (   0.6250000   0.5000000   0.0000000), wk =   0.0019531
        k(  354) = (   0.6250000   0.5000000   0.1250000), wk =   0.0019531
        k(  355) = (   0.6250000   0.5000000   0.2500000), wk =   0.0019531
        k(  356) = (   0.6250000   0.5000000   0.3750000), wk =   0.0019531
        k(  357) = (   0.6250000   0.5000000   0.5000000), wk =   0.0019531
        k(  358) = (   0.6250000   0.5000000   0.6250000), wk =   0.0019531
        k(  359) = (   0.6250000   0.5000000   0.7500000), wk =   0.0019531
        k(  360) = (   0.6250000   0.5000000   0.8750000), wk =   0.0019531
        k(  361) = (   0.6250000   0.6250000   0.0000000), wk =   0.0019531
        k(  362) = (   0.6250000   0.6250000   0.1250000), wk =   0.0019531
        k(  363) = (   0.6250000   0.6250000   0.2500000), wk =   0.0019531
        k(  364) = (   0.6250000   0.6250000   0.3750000), wk =   0.0019531
        k(  365) = (   0.6250000   0.6250000   0.5000000), wk =   0.0019531
        k(  366) = (   0.6250000   0.6250000   0.6250000), wk =   0.0019531
        k(  367) = (   0.6250000   0.6250000   0.7500000), wk =   0.0019531
        k(  368) = (   0.6250000   0.6250000   0.8750000), wk =   0.0019531
        k(  369) = (   0.6250000   0.7500000   0.0000000), wk =   0.0019531
        k(  370) = (   0.6250000   0.7500000   0.1250000), wk =   0.0019531
        k(  371) = (   0.6250000   0.7500000   0.2500000), wk =   0.0019531
        k(  372) = (   0.6250000   0.7500000   0.3750000), wk =   0.0019531
        k(  373) = (   0.6250000   0.7500000   0.5000000), wk =   0.0019531
        k(  374) = (   0.6250000   0.7500000   0.6250000), wk =   0.0019531
        k(  375) = (   0.6250000   0.7500000   0.7500000), wk =   0.0019531
        k(  376) = (   0.6250000   0.7500000   0.8750000), wk =   0.0019531
        k(  377) = (   0.6250000   0.8750000   0.0000000), wk =   0.0019531
        k(  378) = (   0.6250000   0.8750000   0.1250000), wk =   0.0019531
        k(  379) = (   0.6250000   0.8750000   0.2500000), wk =   0.0019531
        k(  380) = (   0.6250000   0.8750000   0.3750000), wk =   0.0019531
        k(  381) = (   0.6250000   0.8750000   0.5000000), wk =   0.0019531
        k(  382) = (   0.6250000   0.8750000   0.6250000), wk =   0.0019531
        k(  383) = (   0.6250000   0.8750000   0.7500000), wk =   0.0019531
        k(  384) = (   0.6250000   0.8750000   0.8750000), wk =   0.0019531
        k(  385) = (   0.7500000   0.0000000   0.0000000), wk =   0.0019531
        k(  386) = (   0.7500000   0.0000000   0.1250000), wk =   0.0019531
        k(  387) = (   0.7500000   0.0000000   0.2500000), wk =   0.0019531
        k(  388) = (   0.7500000   0.0000000   0.3750000), wk =   0.0019531
        k(  389) = (   0.7500000   0.0000000   0.5000000), wk =   0.0019531
        k(  390) = (   0.7500000   0.0000000   0.6250000), wk =   0.0019531
        k(  391) = (   0.7500000   0.0000000   0.7500000), wk =   0.0019531
        k(  392) = (   0.7500000  -0.0000000   0.8750000), wk =   0.0019531
[...]
     9.1776   9.1840   9.3024   9.3180   9.5836   9.5987   9.8263   9.8439
     9.9640   9.9710  10.1438  10.1505  10.5335  10.5435  10.6513  10.6582
    10.8364  10.8449  11.0257  11.0500  11.4450  11.4618  11.6052  11.6247
    11.8813  11.9087  12.0158  12.0222  12.5266  12.5323  13.1556  13.1591
    13.4420  13.4982  13.7275  13.8044  14.1281  14.1320  14.3716  14.3936
    14.6881  14.6955  14.7566  14.7835  14.7969  14.8119  15.1149  15.1294
    15.3246  15.3297  15.5566  15.5628  15.6331  15.6358  15.8812  15.8951
    15.9297  15.9645  16.0004  16.0523  16.0618  16.0864  16.5981  16.6333
    16.6709  16.6915  16.7045  16.7145  16.7926  16.8136  16.8408  16.8587
    16.8976  16.9074  16.9820  16.9954  17.3209  17.3702  17.4729  17.4971
    17.9526  17.9627  18.0417  18.0565  18.1553  18.1648  18.3542  18.3857

     occupation numbers 
     1.0000   1.0000   1.0000   1.0000   1.0000   1.0000   1.0000   1.0000
     1.0000   1.0000   1.0000   1.0000   1.0000   1.0000   1.0000   1.0000
     1.0000   1.0000   1.0000   1.0000   1.0000   1.0000   1.0000   1.0000
     1.0000   1.0000   1.0000   1.0000   1.0000   1.0000   1.0000   1.0000
     1.0000   1.0000   1.0000   1.0000   1.0000   1.0000   1.0000   1.0000
     1.0000   1.0000   1.0000   1.0000   1.0000   1.0000   1.0000   1.0000
     1.0000   1.0000   1.0000   1.0000   1.0000   1.0000   1.0000   1.0000
     1.0000   1.0000   1.0000   1.0000   1.0000   1.0000   1.0000   1.0000
     1.0000   1.0000   1.0000   1.0000   1.0000   1.0000   1.0000   1.0000
     1.0000   1.0000   1.0000   1.0000   1.0000   1.0000   1.0000   1.0000
     1.0000   1.0000   1.0000   1.0000   1.0000   1.0000   1.0000   1.0000
     1.0000   1.0000   1.0000   1.0000   1.0000   1.0000   1.0000   1.0000
     1.0000   1.0000   1.0000   1.0000   1.0000   1.0000   1.0000   1.0000
     1.0000   1.0000   1.0000   1.0000   1.0000   1.0000   1.0000   1.0000
     1.0000   1.0000   1.0000   1.0000   1.0000   1.0000   1.0000   1.0000
     1.0000   1.0000   1.0000   1.0000   1.0000   1.0000   1.0000   1.0000
     1.0000   1.0000   1.0000   1.0000   1.0000   1.0000   1.0000   1.0000
     1.0000   1.0000   0.0000   0.0000   0.0000   0.0000   0.0000   0.0000
     0.0000   0.0000   0.0000   0.0000   0.0000   0.0000   0.0000   0.0000
     0.0000   0.0000   0.0000   0.0000   0.0000   0.0000   0.0000   0.0000
     0.0000   0.0000   0.0000   0.0000   0.0000   0.0000   0.0000   0.0000
     0.0000   0.0000   0.0000   0.0000   0.0000   0.0000   0.0000   0.0000
     0.0000   0.0000   0.0000   0.0000   0.0000   0.0000   0.0000   0.0000
     0.0000   0.0000   0.0000   0.0000   0.0000   0.0000   0.0000   0.0000
     0.0000   0.0000   0.0000   0.0000   0.0000   0.0000   0.0000   0.0000
     0.0000   0.0000   0.0000   0.0000   0.0000   0.0000   0.0000   0.0000
     0.0000   0.0000   0.0000   0.0000   0.0000   0.0000   0.0000   0.0000
     0.0000   0.0000   0.0000   0.0000   0.0000   0.0000   0.0000   0.0000
     0.0000   0.0000   0.0000   0.0000   0.0000   0.0000   0.0000   0.0000
     0.0000   0.0000   0.0000   0.0000   0.0000   0.0000   0.0000   0.0000

          k = 1.5806 0.9125 0.7950 ( 23481 PWs)   bands (ev):

   -74.0101 -74.0062 -69.4408 -69.4369 -43.2627 -43.2588 -42.8510 -42.8471
   -42.3469 -42.3430 -38.6203 -38.6164 -38.2000 -38.1961 -37.8718 -37.8679
   -16.9808 -16.9784 -16.9780 -16.9763 -16.9728 -16.9708 -16.9693 -16.9685
   -16.9636 -16.9609 -16.9594 -16.9567 -16.9553 -16.9547 -16.9544 -16.9505
   -14.0077 -14.0033 -13.9987 -13.9955 -13.9943 -13.9906 -13.9900 -13.9878
   -13.9875 -13.9860 -13.9850 -13.9821 -13.9816 -13.9797 -13.9794 -13.9773
   -13.9766 -13.9759 -13.9742 -13.9697 -13.9667 -13.9661 -13.9652 -13.9613
    -5.0007  -4.9815  -4.9661  -4.9586  -4.7965  -4.7809  -4.7550  -4.7445
    -3.5053  -3.5035  -3.3876  -3.3849  -3.1016  -3.0992  -2.9722  -2.9713
    -1.6880  -1.6808  -1.6150  -1.6106  -1.3050  -1.2965  -1.2628  -1.2595
     3.1929   3.1965   3.3311   3.3415   3.6014   3.6187   3.7252   3.7352
     3.8913   3.8953   4.0474   4.0528   4.2748   4.2777   4.3119   4.3162
     4.4136   4.4190   4.6931   4.6981   4.7532   4.7557   4.8211   4.8266
     4.9339   4.9414   5.0688   5.0743   5.1826   5.1951   5.2850   5.2942
     5.3439   5.3497   5.6487   5.6575   5.7708   5.7765   5.9209   5.9309
     6.0832   6.0874   6.1619   6.1730   6.3685   6.3745   6.4449   6.4529
     6.5744   6.5789   6.7059   6.7091   7.1333   7.1404   7.2065   7.2089
     7.4400   7.4459   8.2448   8.2578   8.3776   8.3900   8.5537   8.5577
     8.8745   8.8777   8.9163   8.9196   8.9939   8.9962   9.1161   9.1215
     9.1751   9.1777   9.3627   9.3689   9.7088   9.7273   9.7630   9.7631
    10.0124  10.0266  10.1817  10.1849  10.3008  10.3114  10.5789  10.5832
    10.7982  10.8058  11.0398  11.0441  11.5511  11.5760  11.8136  11.8470
    12.0890  12.0949  12.3288  12.3366  12.4445  12.4488  12.8062  12.8130
    13.2884  13.3288  13.4325  13.4905  13.5737  13.6009  13.6210  13.6489
    13.7722  13.8040  14.0589  14.0786  14.1841  14.1948  14.3573  14.3614
    14.4249  14.4424  14.6810  14.7218  14.7688  14.8151  14.8287  14.8462
    14.9240  14.9321  15.0615  15.0870  15.2533  15.2609  15.5410  15.5594
    15.6304  15.6944  15.9473  15.9793  15.9938  16.0345  16.1145  16.1503
    16.3054  16.3420  16.5224  16.5352  16.6744  16.7009  16.9040  16.9401
    17.0263  17.0667  17.0952  17.1282  17.3309  17.3509  17.5279  17.5720

     occupation numbers 
     1.0000   1.0000   1.0000   1.0000   1.0000   1.0000   1.0000   1.0000
     1.0000   1.0000   1.0000   1.0000   1.0000   1.0000   1.0000   1.0000
     1.0000   1.0000   1.0000   1.0000   1.0000   1.0000   1.0000   1.0000
     1.0000   1.0000   1.0000   1.0000   1.0000   1.0000   1.0000   1.0000
     1.0000   1.0000   1.0000   1.0000   1.0000   1.0000   1.0000   1.0000
     1.0000   1.0000   1.0000   1.0000   1.0000   1.0000   1.0000   1.0000
     1.0000   1.0000   1.0000   1.0000   1.0000   1.0000   1.0000   1.0000
     1.0000   1.0000   1.0000   1.0000   1.0000   1.0000   1.0000   1.0000
     1.0000   1.0000   1.0000   1.0000   1.0000   1.0000   1.0000   1.0000
     1.0000   1.0000   1.0000   1.0000   1.0000   1.0000   1.0000   1.0000
     1.0000   1.0000   1.0000   1.0000   1.0000   1.0000   1.0000   1.0000
     1.0000   1.0000   1.0000   1.0000   1.0000   1.0000   1.0000   1.0000
     1.0000   1.0000   1.0000   1.0000   1.0000   1.0000   1.0000   1.0000
     1.0000   1.0000   1.0000   1.0000   1.0000   1.0000   1.0000   1.0000
     1.0000   1.0000   1.0000   1.0000   1.0000   1.0000   1.0000   1.0000
     1.0000   1.0000   1.0000   1.0000   1.0000   1.0000   1.0000   1.0000
     1.0000   1.0000   1.0000   1.0000   1.0000   1.0000   1.0000   1.0000
     1.0000   1.0000   0.0000   0.0000   0.0000   0.0000   0.0000   0.0000
     0.0000   0.0000   0.0000   0.0000   0.0000   0.0000   0.0000   0.0000
     0.0000   0.0000   0.0000   0.0000   0.0000   0.0000   0.0000   0.0000
     0.0000   0.0000   0.0000   0.0000   0.0000   0.0000   0.0000   0.0000
     0.0000   0.0000   0.0000   0.0000   0.0000   0.0000   0.0000   0.0000
     0.0000   0.0000   0.0000   0.0000   0.0000   0.0000   0.0000   0.0000
     0.0000   0.0000   0.0000   0.0000   0.0000   0.0000   0.0000   0.0000
     0.0000   0.0000   0.0000   0.0000   0.0000   0.0000   0.0000   0.0000
     0.0000   0.0000   0.0000   0.0000   0.0000   0.0000   0.0000   0.0000
     0.0000   0.0000   0.0000   0.0000   0.0000   0.0000   0.0000   0.0000
     0.0000   0.0000   0.0000   0.0000   0.0000   0.0000   0.0000   0.0000
     0.0000   0.0000   0.0000   0.0000   0.0000   0.0000   0.0000   0.0000
     0.0000   0.0000   0.0000   0.0000   0.0000   0.0000   0.0000   0.0000

          k = 0.7903 0.4563 0.8368 ( 23444 PWs)   bands (ev):

   -74.0101 -74.0062 -69.4408 -69.4369 -43.2626 -43.2587 -42.8511 -42.8471
   -42.3467 -42.3429 -38.6201 -38.6163 -38.2001 -38.1961 -37.8716 -37.8676
   -16.9814 -16.9794 -16.9791 -16.9765 -16.9736 -16.9708 -16.9692 -16.9683
   -16.9645 -16.9619 -16.9602 -16.9566 -16.9561 -16.9545 -16.9544 -16.9506
   -14.0082 -14.0040 -13.9987 -13.9946 -13.9929 -13.9907 -13.9895 -13.9885
   -13.9883 -13.9867 -13.9855 -13.9832 -13.9819 -13.9813 -13.9812 -13.9774
   -13.9768 -13.9747 -13.9730 -13.9686 -13.9685 -13.9682 -13.9677 -13.9632
    -5.3996  -5.3812  -5.3615  -5.3528  -5.1855  -5.1703  -5.1362  -5.1242
    -3.7753  -3.7738  -3.6015  -3.5992  -3.3069  -3.3056  -3.0931  -3.0922
    -1.5152  -1.5126  -1.2815  -1.2784  -0.9111  -0.9091  -0.7326  -0.7322
     3.5409   3.5476   3.8679   3.8741   4.0557   4.0643   4.2527   4.2573
     4.3756   4.3992   4.4391   4.4629   4.7097   4.7152   4.7427   4.7467
     4.7904   4.7951   4.9989   5.0060   5.0628   5.0673   5.2970   5.3050
     5.4107   5.4214   5.6108   5.6288   5.6756   5.6964   5.7450   5.7503
     5.9303   5.9485   6.0762   6.0795   6.2165   6.2281   6.3623   6.3664
     6.4336   6.4430   6.6288   6.6324   6.8017   6.8092   6.9011   6.9055
     7.0415   7.0459   7.0781   7.0872   7.3215   7.3281   7.4839   7.4875
     7.5339   7.5391   8.0206   8.0368   8.0771   8.0916   8.4958   8.5014
     8.5813   8.5865   8.6602   8.6639   8.8066   8.8106   9.0065   9.0090
     9.0362   9.0400   9.2148   9.2225   9.5232   9.5311   9.6561   9.6583
     9.7679   9.7715   9.8649   9.8696   9.9696   9.9716  10.0887  10.0963
    10.3866  10.3892  10.4471  10.4531  11.6165  11.6220  11.8543  11.8600
    12.0960  12.1055  12.4821  12.4944  12.7565  12.7853  12.8939  12.9150
    12.9999  13.0304  13.0956  13.1379  13.1386  13.1536  13.2677  13.2817
    13.4875  13.5227  13.7209  13.7235  13.8337  13.8515  13.9010  13.9317
    13.9573  13.9676  13.9907  14.0472  14.2060  14.2287  14.3506  14.3696
    14.4923  14.5240  14.6418  14.6642  14.7437  14.7582  14.9656  14.9869
    15.0634  15.1113  15.4222  15.4629  15.7642  15.7963  15.8240  15.8451
    15.8733  15.8968  16.0093  16.0586  16.1345  16.1741  16.1910  16.2257
    16.2503  16.2880  16.3463  16.3512  16.4313  16.4790  16.6651  16.6876

     occupation numbers 
     1.0000   1.0000   1.0000   1.0000   1.0000   1.0000   1.0000   1.0000
     1.0000   1.0000   1.0000   1.0000   1.0000   1.0000   1.0000   1.0000
     1.0000   1.0000   1.0000   1.0000   1.0000   1.0000   1.0000   1.0000
     1.0000   1.0000   1.0000   1.0000   1.0000   1.0000   1.0000   1.0000
     1.0000   1.0000   1.0000   1.0000   1.0000   1.0000   1.0000   1.0000
     1.0000   1.0000   1.0000   1.0000   1.0000   1.0000   1.0000   1.0000
     1.0000   1.0000   1.0000   1.0000   1.0000   1.0000   1.0000   1.0000
     1.0000   1.0000   1.0000   1.0000   1.0000   1.0000   1.0000   1.0000
     1.0000   1.0000   1.0000   1.0000   1.0000   1.0000   1.0000   1.0000
     1.0000   1.0000   1.0000   1.0000   1.0000   1.0000   1.0000   1.0000
     1.0000   1.0000   1.0000   1.0000   1.0000   1.0000   1.0000   1.0000
     1.0000   1.0000   1.0000   1.0000   1.0000   1.0000   1.0000   1.0000
     1.0000   1.0000   1.0000   1.0000   1.0000   1.0000   1.0000   1.0000
     1.0000   1.0000   1.0000   1.0000   1.0000   1.0000   1.0000   1.0000
     1.0000   1.0000   1.0000   1.0000   1.0000   1.0000   1.0000   1.0000
     1.0000   1.0000   1.0000   1.0000   1.0000   1.0000   1.0000   1.0000
     1.0000   1.0000   1.0000   1.0000   1.0000   1.0000   1.0000   1.0000
     1.0000   1.0000   0.0000   0.0000   0.0000   0.0000   0.0000   0.0000
     0.0000   0.0000   0.0000   0.0000   0.0000   0.0000   0.0000   0.0000
     0.0000   0.0000   0.0000   0.0000   0.0000   0.0000   0.0000   0.0000
     0.0000   0.0000   0.0000   0.0000   0.0000   0.0000   0.0000   0.0000
     0.0000   0.0000   0.0000   0.0000   0.0000   0.0000   0.0000   0.0000
     0.0000   0.0000   0.0000   0.0000   0.0000   0.0000   0.0000   0.0000
     0.0000   0.0000   0.0000   0.0000   0.0000   0.0000   0.0000   0.0000
     0.0000   0.0000   0.0000   0.0000   0.0000   0.0000   0.0000   0.0000
     0.0000   0.0000   0.0000   0.0000   0.0000   0.0000   0.0000   0.0000
     0.0000   0.0000   0.0000   0.0000   0.0000   0.0000   0.0000   0.0000
     0.0000   0.0000   0.0000   0.0000   0.0000   0.0000   0.0000   0.0000
     0.0000   0.0000   0.0000   0.0000   0.0000   0.0000   0.0000   0.0000
     0.0000   0.0000   0.0000   0.0000   0.0000   0.0000   0.0000   0.0000

          k = 0.0000 0.0000 0.8787 ( 23488 PWs)   bands (ev):

   -74.0101 -74.0062 -69.4409 -69.4369 -43.2625 -43.2587 -42.8511 -42.8471
   -42.3467 -42.3428 -38.6201 -38.6162 -38.2001 -38.1961 -37.8715 -37.8676
   -16.9817 -16.9800 -16.9797 -16.9767 -16.9741 -16.9708 -16.9692 -16.9682
   -16.9650 -16.9625 -16.9606 -16.9567 -16.9566 -16.9546 -16.9542 -16.9507
   -14.0089 -14.0047 -13.9994 -13.9950 -13.9925 -13.9903 -13.9902 -13.9892
   -13.9878 -13.9862 -13.9858 -13.9839 -13.9828 -13.9820 -13.9819 -13.9783
   -13.9765 -13.9739 -13.9727 -13.9689 -13.9688 -13.9685 -13.9677 -13.9638
    -5.5369  -5.5187  -5.4971  -5.4878  -5.3207  -5.3056  -5.2677  -5.2552
    -3.8779  -3.8764  -3.6825  -3.6801  -3.3927  -3.3918  -3.1471  -3.1460
    -1.4871  -1.4846  -1.1820  -1.1796  -0.7996  -0.7986  -0.5466  -0.5463
     3.5827   3.5864   3.9521   3.9550   4.2423   4.2462   4.2797   4.2828
     4.6531   4.6570   4.7930   4.7968   4.8067   4.8106   4.9174   4.9216
     5.1461   5.1527   5.3197   5.3249   5.5072   5.5144   5.6413   5.6511
     5.7231   5.7370   5.9496   5.9555   6.0679   6.0712   6.1762   6.1833
     6.3129   6.3169   6.3234   6.3289   6.3608   6.3641   6.5928   6.5950
     6.6695   6.6707   6.7980   6.7992   6.9404   6.9458   7.0827   7.0931
     7.1738   7.1763   7.2650   7.2672   7.5299   7.5395   7.6072   7.6111
     7.7238   7.7273   7.8111   7.8143   7.8507   7.8599   8.0237   8.0261
     8.1284   8.1305   8.6345   8.6373   8.6384   8.6409   8.8071   8.8108
     8.9286   8.9304   9.1007   9.1039   9.2721   9.2821   9.3858   9.3925
     9.4556   9.4564   9.5552   9.5605   9.7787   9.7804   9.8910   9.8937
     9.8993   9.9003  10.4318  10.4352  11.4569  11.4637  11.7307  11.7340
    11.7832  11.7911  12.5325  12.5502  12.7824  12.7865  12.9110  12.9149
    13.2475  13.2702  13.2874  13.3009  13.3562  13.3639  13.3813  13.3897
    13.5253  13.5654  13.6873  13.6995  13.7634  13.7674  13.8260  13.8453
    13.9629  13.9818  14.1077  14.1131  14.1604  14.1635  14.2977  14.3022
    14.3412  14.3465  14.6212  14.6329  14.7647  14.7675  14.8133  14.8351
    15.0019  15.0408  15.1673  15.1846  15.2430  15.2782  15.3987  15.4021
    15.4448  15.4766  15.5738  15.6293  15.6429  15.6540  15.6914  15.7641
    16.0432  16.0550  16.2216  16.2426  16.2559  16.2701  16.3036  16.3386

     occupation numbers 
     1.0000   1.0000   1.0000   1.0000   1.0000   1.0000   1.0000   1.0000
     1.0000   1.0000   1.0000   1.0000   1.0000   1.0000   1.0000   1.0000
     1.0000   1.0000   1.0000   1.0000   1.0000   1.0000   1.0000   1.0000
     1.0000   1.0000   1.0000   1.0000   1.0000   1.0000   1.0000   1.0000
     1.0000   1.0000   1.0000   1.0000   1.0000   1.0000   1.0000   1.0000
     1.0000   1.0000   1.0000   1.0000   1.0000   1.0000   1.0000   1.0000
     1.0000   1.0000   1.0000   1.0000   1.0000   1.0000   1.0000   1.0000
     1.0000   1.0000   1.0000   1.0000   1.0000   1.0000   1.0000   1.0000
     1.0000   1.0000   1.0000   1.0000   1.0000   1.0000   1.0000   1.0000
     1.0000   1.0000   1.0000   1.0000   1.0000   1.0000   1.0000   1.0000
     1.0000   1.0000   1.0000   1.0000   1.0000   1.0000   1.0000   1.0000
     1.0000   1.0000   1.0000   1.0000   1.0000   1.0000   1.0000   1.0000
     1.0000   1.0000   1.0000   1.0000   1.0000   1.0000   1.0000   1.0000
     1.0000   1.0000   1.0000   1.0000   1.0000   1.0000   1.0000   1.0000
     1.0000   1.0000   1.0000   1.0000   1.0000   1.0000   1.0000   1.0000
     1.0000   1.0000   1.0000   1.0000   1.0000   1.0000   1.0000   1.0000
     1.0000   1.0000   1.0000   1.0000   1.0000   1.0000   1.0000   1.0000
     1.0000   1.0000   0.0000   0.0000   0.0000   0.0000   0.0000   0.0000
     0.0000   0.0000   0.0000   0.0000   0.0000   0.0000   0.0000   0.0000
     0.0000   0.0000   0.0000   0.0000   0.0000   0.0000   0.0000   0.0000
     0.0000   0.0000   0.0000   0.0000   0.0000   0.0000   0.0000   0.0000
     0.0000   0.0000   0.0000   0.0000   0.0000   0.0000   0.0000   0.0000
     0.0000   0.0000   0.0000   0.0000   0.0000   0.0000   0.0000   0.0000
     0.0000   0.0000   0.0000   0.0000   0.0000   0.0000   0.0000   0.0000
     0.0000   0.0000   0.0000   0.0000   0.0000   0.0000   0.0000   0.0000
     0.0000   0.0000   0.0000   0.0000   0.0000   0.0000   0.0000   0.0000
     0.0000   0.0000   0.0000   0.0000   0.0000   0.0000   0.0000   0.0000
     0.0000   0.0000   0.0000   0.0000   0.0000   0.0000   0.0000   0.0000
     0.0000   0.0000   0.0000   0.0000   0.0000   0.0000   0.0000   0.0000
     0.0000   0.0000   0.0000   0.0000   0.0000   0.0000   0.0000   0.0000

     highest occupied, lowest unoccupied level (ev):     7.7297    7.7680

     Writing all to output data dir ./tmp/MnBi2Te4.save/
 
     init_run     :      3.67s CPU      4.12s WALL (       1 calls)
     electrons    : 271528.85s CPU 280544.12s WALL (       1 calls)

     Called by init_run:
     wfcinit      :      0.00s CPU      0.00s WALL (       1 calls)
     wfcinit:atom :      0.29s CPU      0.37s WALL (     512 calls)
     wfcinit:wfcr :  10025.36s CPU  10309.30s WALL (     512 calls)
     potinit      :      1.77s CPU      2.03s WALL (       1 calls)
     hinit0       :      0.81s CPU      0.87s WALL (       1 calls)

     Called by electrons:
     c_bands      : 271528.84s CPU 280543.84s WALL (       1 calls)
     v_of_rho     :      0.99s CPU      1.14s WALL (       1 calls)
     v_h          :      0.03s CPU      0.04s WALL (       1 calls)
     v_xc         :      0.96s CPU      1.10s WALL (       1 calls)
     newd         :      0.89s CPU      0.96s WALL (       1 calls)
     PAW_pot      :      0.52s CPU      0.55s WALL (       1 calls)

     Called by c_bands:
     init_us_2    :      0.57s CPU      0.60s WALL (     512 calls)
     init_us_2:cp :      0.57s CPU      0.60s WALL (     512 calls)
     cegterg      : 261476.28s CPU 270201.30s WALL (    1959 calls)

     Called by sum_band:

     Called by *egterg:
     cdiaghg      :   2075.42s CPU   2198.15s WALL (   34404 calls)
     cegterg:over :   2538.46s CPU   2725.46s WALL (   33892 calls)
     cegterg:upda :   1274.98s CPU   1340.15s WALL (   33892 calls)
     cegterg:last :   2194.24s CPU   2309.99s WALL (   13614 calls)
     cdiaghg:chol :    339.52s CPU    349.86s WALL (   34404 calls)
     cdiaghg:inve :     36.39s CPU     37.59s WALL (   34404 calls)
     cdiaghg:para :    392.94s CPU    435.86s WALL (   68808 calls)
     h_psi        : 262026.51s CPU 270476.54s WALL (   36363 calls)
     s_psi        :    403.00s CPU    416.47s WALL (   36363 calls)
     g_psi        :      5.61s CPU      5.75s WALL (   33892 calls)

     Called by h_psi:
     h_psi:calbec :   2443.84s CPU   2705.38s WALL (   36363 calls)
     vloc_psi     : 259202.49s CPU 267374.98s WALL (   36363 calls)
     add_vuspsi   :    368.99s CPU    383.35s WALL (   36363 calls)

     General routines
     calbec       :   2443.47s CPU   2705.12s WALL (   36363 calls)
     fft          :      0.53s CPU      0.63s WALL (      31 calls)
     ffts         :      0.02s CPU      0.02s WALL (       4 calls)
     fftw         : 200872.39s CPU 208320.44s WALL (13039356 calls)
     interpolate  :      0.09s CPU      0.12s WALL (       4 calls)
     davcio       :      0.16s CPU      6.95s WALL (    1024 calls)
 
     Parallel routines

     PAW routines
     PAW_pot      :      0.52s CPU      0.55s WALL (       1 calls)
 
     PWSCF        :   3d 5h43m CPU   3d 8h17m WALL

 
   This run was terminated on:   5: 2:15  10Jan2026            

=------------------------------------------------------------------------------=
   JOB DONE.
=------------------------------------------------------------------------------=
