
     Program BANDS v.7.2 starts on 15Jul2025 at 20:33:11 

     This program is part of the open-source Quantum ESPRESSO suite
     for quantum simulation of materials; please cite
         "P. Giannozzi et al., J. Phys.:Condens. Matter 21 395502 (2009);
         "P. Giannozzi et al., J. Phys.:Condens. Matter 29 465901 (2017);
         "P. Giannozzi et al., J. Chem. Phys. 152 154105 (2020);
          URL http://www.quantum-espresso.org", 
     in publications or presentations arising from this work. More details at
     http://www.quantum-espresso.org/quote

     Parallel version (MPI), running on    32 processors

     MPI processes distributed on     1 nodes
     R & G space division:  proc/nbgrp/npool/nimage =      32
     170720 MiB available memory on the printing compute node when the environment starts
 

     Reading xml data from directory:

     ./tmp/MnBi2Te4.save/
     file Mn.rel-pbe-spn-kjpaw_psl.1.0.0.UPF: wavefunction(s)  3S 4S 3P 3P 3D 3D renormalized
     file Mn.rel-pbe-spn-kjpaw_psl.1.0.0.UPF: wavefunction(s)  3S 4S 3P 3P 3D 3D renormalized
     file Bi.rel-pbe-dn-kjpaw_psl.1.0.0.UPF: wavefunction(s)  6P 6P 5D 5D renormalized
     file Te.rel-pbe-n-kjpaw_psl.1.0.0.UPF: wavefunction(s)  5S 5P 5P renormalized

     IMPORTANT: XC functional enforced from input :
     Exchange-correlation= PBE
                           (   1   4   3   4   0   0   0)
     Any further DFT definition will be discarded
     Please, verify this is what you really want

 
     Parallelization info
     --------------------
     sticks:   dense  smooth     PW     G-vecs:    dense   smooth      PW
     Min         252     252     70                 5873     5873     871
     Max         253     253     71                 5875     5875     873
     Sum        8079    8079   2257               187971   187971   27897
 
     Using Slab Decomposition
 

     Check: negative core charge=   -0.000001
     Reading collected, re-writing distributed wavefunctions
     high-symmetry point:  0.0000 0.0000 0.0000   x coordinate   0.0000
     high-symmetry point:  0.0000 0.0000 0.5021   x coordinate   0.5021
     high-symmetry point:  0.0000-3.5888 0.5021   x coordinate   0.5021
     high-symmetry point:  0.0000-3.6502 0.3347   x coordinate   0.6804
     high-symmetry point:  0.0000 0.0000 0.0000   x coordinate   0.6804
     high-symmetry point:  3.1612-1.8251 0.1674   x coordinate   0.6804

     Plottable bands (eV) written to file MnBi2Te4_bands.dat.gnu
     Bands written to file MnBi2Te4_bands.dat

 **************************************************************************

                    xk=(   0.00000,   0.00000,   0.00000  )

     the magnetic double point group is D_3d (-3m)  [S_6 (-3)   ]
     using the double point group S_6 (-3)   
     there are 12 classes and  6 irreducible representations
     the character table:

       E     -E    C3    -C3   C3^2  -C3^2  i    -i    S6^5  -S6^5 S6    -S6  
                                                                              
G_4+   1.00 -1.00  0.50 -0.50  0.50 -0.50  1.00 -1.00  0.50 -0.50  0.50 -0.50
G_5+   1.00 -1.00  0.50 -0.50  0.50 -0.50  1.00 -1.00  0.50 -0.50  0.50 -0.50
G_6+   1.00 -1.00 -1.00  1.00 -1.00  1.00  1.00 -1.00 -1.00  1.00 -1.00  1.00
G_4-   1.00 -1.00  0.50 -0.50  0.50 -0.50 -1.00  1.00 -0.50  0.50 -0.50  0.50
G_5-   1.00 -1.00  0.50 -0.50  0.50 -0.50 -1.00  1.00 -0.50  0.50 -0.50  0.50
G_6-   1.00 -1.00 -1.00  1.00 -1.00  1.00 -1.00  1.00  1.00 -1.00  1.00 -1.00

     imaginary part

       E     -E    C3    -C3   C3^2  -C3^2  i    -i    S6^5  -S6^5 S6    -S6  
                                                                              
G_4+   0.00  0.00  0.87 -0.87 -0.87  0.87  0.00  0.00  0.87 -0.87 -0.87  0.87
G_5+   0.00  0.00 -0.87  0.87  0.87 -0.87  0.00  0.00 -0.87  0.87  0.87 -0.87
G_6+   0.00  0.00  0.00  0.00  0.00  0.00  0.00  0.00  0.00  0.00  0.00  0.00
G_4-   0.00  0.00  0.87 -0.87 -0.87  0.87  0.00  0.00 -0.87  0.87  0.87 -0.87
G_5-   0.00  0.00 -0.87  0.87  0.87 -0.87  0.00  0.00  0.87 -0.87 -0.87  0.87
G_6-   0.00  0.00  0.00  0.00  0.00  0.00  0.00  0.00  0.00  0.00  0.00  0.00

     the symmetry operations in each class and the name of the first element:

     E             1
                                                                 
     -E           -1
                                                                 
     C3            2
                                                                 
     -C3          -2
                                                                 
     C3^2          3
                                                                 
     -C3^2        -3
                                                                 
      i            4
                                                                 
     -i           -4
                                                                 
     S6^5          5
                                                                 
     -S6^5        -5
                                                                 
     S6            6
                                                                 
     -S6          -6
                                                                 

     Band symmetry, D_3d (-3m)  [S_6 (-3)   ] magnetic double point group,
     using S_6 (-3)   

     e(  1 -  1) =    -75.03737  eV     1   --> G_5+           
     e(  2 -  2) =    -74.95802  eV     1   --> G_4+           
     e(  3 -  3) =    -70.24590  eV     1   --> G_4+           
     e(  4 -  4) =    -70.16060  eV     1   --> G_5+           
     e(  5 -  5) =    -44.13519  eV     1   --> G_4-           
     e(  6 -  6) =    -44.05145  eV     1   --> G_5-           
     e(  7 -  7) =    -43.72709  eV     1   --> G_5-           
     e(  8 -  8) =    -43.65015  eV     1   --> G_4-           
     e(  9 -  9) =    -43.22684  eV     1   --> G_6-           
     e( 10 - 10) =    -43.14317  eV     1   --> G_6-           
     e( 11 - 11) =    -39.17804  eV     1   --> G_5-           
     e( 12 - 12) =    -39.09834  eV     1   --> G_4-           
     e( 13 - 13) =    -38.77043  eV     1   --> G_4-           
     e( 14 - 14) =    -38.68513  eV     1   --> G_5-           
     e( 15 - 15) =    -38.42574  eV     1   --> G_6-           
     e( 16 - 16) =    -38.34600  eV     1   --> G_6-           
     e( 17 - 17) =    -17.01816  eV     1   --> G_4+           
     e( 18 - 18) =    -17.01791  eV     1   --> G_4-           
     e( 19 - 19) =    -16.98370  eV     1   --> G_6+           
     e( 20 - 20) =    -16.98356  eV     1   --> G_6-           
     e( 21 - 21) =    -16.95909  eV     1   --> G_6+           
     e( 22 - 22) =    -16.95895  eV     1   --> G_6-           
     e( 23 - 23) =    -16.93566  eV     1   --> G_5+           
     e( 24 - 24) =    -16.93542  eV     1   --> G_5-           
     e( 25 - 25) =    -16.93511  eV     1   --> G_6+           
     e( 26 - 26) =    -16.93497  eV     1   --> G_6-           
     e( 27 - 27) =    -16.92465  eV     1   --> G_6+           
     e( 28 - 28) =    -16.92452  eV     1   --> G_6-           
     e( 29 - 29) =    -16.91465  eV     1   --> G_5+           
     e( 30 - 30) =    -16.91442  eV     1   --> G_5-           
     e( 31 - 31) =    -16.91353  eV     1   --> G_4+           
     e( 32 - 32) =    -16.91329  eV     1   --> G_4-           
     e( 33 - 33) =    -13.99593  eV     1   --> G_4+           
     e( 34 - 34) =    -13.99576  eV     1   --> G_4-           
     e( 35 - 35) =    -13.99457  eV     1   -->   ?
     e( 36 - 36) =    -13.99445  eV     1   -->   ?
     e( 37 - 37) =    -13.99190  eV     1   --> G_6+           
     e( 38 - 38) =    -13.99175  eV     1   --> G_6-           
     e( 39 - 39) =    -13.98390  eV     1   -->   ?
     e( 40 - 40) =    -13.98364  eV     1   -->   ?
     e( 41 - 41) =    -13.97387  eV     1   --> G_6+           
     e( 42 - 42) =    -13.97372  eV     1   --> G_6-           
     e( 43 - 43) =    -13.97140  eV     1   --> G_4+           
     e( 44 - 44) =    -13.97118  eV     1   --> G_4-           
     e( 45 - 45) =    -13.95668  eV     1   --> G_5+           
     e( 46 - 46) =    -13.95649  eV     1   --> G_5-           
     e( 47 - 47) =    -13.95313  eV     1   --> G_4+           
     e( 48 - 48) =    -13.95301  eV     1   --> G_4-           
     e( 49 - 49) =    -13.94511  eV     1   -->   ?
     e( 50 - 50) =    -13.94496  eV     1   -->   ?
     e( 51 - 51) =    -13.93782  eV     1   -->   ?
     e( 52 - 52) =    -13.93768  eV     1   -->   ?
     e( 53 - 53) =    -13.93739  eV     1   --> G_5+           
     e( 54 - 54) =    -13.93719  eV     1   --> G_5-           
     e( 55 - 55) =    -13.93324  eV     1   --> G_4+           
     e( 56 - 56) =    -13.93299  eV     1   --> G_4-           
     e( 57 - 57) =     -5.48721  eV     1   --> G_5+           
     e( 58 - 58) =     -5.48482  eV     1   --> G_4+           
     e( 59 - 59) =     -5.45631  eV     1   --> G_5-           
     e( 60 - 60) =     -5.45502  eV     1   --> G_4-           
     e( 61 - 61) =     -5.27197  eV     1   --> G_4+           
     e( 62 - 62) =     -5.26768  eV     1   --> G_5+           
     e( 63 - 63) =     -5.22258  eV     1   --> G_4-           
     e( 64 - 64) =     -5.21890  eV     1   --> G_5-           
     e( 65 - 65) =     -3.82526  eV     1   --> G_5+           
     e( 66 - 66) =     -3.81056  eV     1   --> G_4+           
     e( 67 - 67) =     -3.61097  eV     1   --> G_4+           
     e( 68 - 68) =     -3.59484  eV     1   --> G_5+           
     e( 69 - 69) =     -3.33053  eV     1   --> G_5-           
     e( 70 - 70) =     -3.32841  eV     1   --> G_4-           
     e( 71 - 71) =     -3.05561  eV     1   --> G_4-           
     e( 72 - 72) =     -3.05275  eV     1   --> G_5-           
     e( 73 - 73) =     -1.46905  eV     1   --> G_5+           
     e( 74 - 74) =     -1.46562  eV     1   --> G_4+           
     e( 75 - 75) =     -1.11683  eV     1   --> G_5-           
     e( 76 - 76) =     -1.11516  eV     1   --> G_4-           
     e( 77 - 77) =     -0.79302  eV     1   --> G_4+           
     e( 78 - 78) =     -0.79007  eV     1   --> G_5+           
     e( 79 - 79) =     -0.50058  eV     1   --> G_4-           
     e( 80 - 80) =     -0.49979  eV     1   --> G_5-           
     e( 81 - 81) =      1.81058  eV     1   --> G_6+           
     e( 82 - 82) =      1.83985  eV     1   --> G_4+           
     e( 83 - 83) =      1.89003  eV     1   --> G_5+           
     e( 84 - 84) =      1.89128  eV     1   --> G_6+           
     e( 85 - 85) =      1.92036  eV     1   --> G_5+           
     e( 86 - 86) =      1.96597  eV     1   --> G_4+           
     e( 87 - 87) =      2.08339  eV     1   --> G_4+           
     e( 88 - 88) =      2.10159  eV     1   --> G_6+           
     e( 89 - 89) =      2.16443  eV     1   --> G_5+           
     e( 90 - 90) =      2.18260  eV     1   --> G_6+           
     e( 91 - 91) =      3.99274  eV     1   --> G_4+           
     e( 92 - 92) =      4.00057  eV     1   --> G_5+           
     e( 93 - 93) =      4.26564  eV     1   --> G_5+           
     e( 94 - 94) =      4.27915  eV     1   --> G_4+           
     e( 95 - 95) =      4.67823  eV     1   --> G_4-           
     e( 96 - 96) =      4.68975  eV     1   --> G_5-           
     e( 97 - 97) =      5.20409  eV     1   --> G_4-           
     e( 98 - 98) =      5.20436  eV     1   --> G_5-           
     e( 99 - 99) =      5.22777  eV     1   --> G_4+           
     e(100 -100) =      5.23860  eV     1   --> G_5+           
     e(101 -101) =      5.50046  eV     1   --> G_5+           
     e(102 -102) =      5.50373  eV     1   --> G_4+           
     e(103 -103) =      5.73567  eV     1   --> G_5+           
     e(104 -104) =      5.74859  eV     1   --> G_4+           
     e(105 -105) =      5.76243  eV     1   --> G_5-           
     e(106 -106) =      5.77272  eV     1   --> G_4-           
     e(107 -107) =      6.13683  eV     1   --> G_5+           
     e(108 -108) =      6.19076  eV     1   --> G_4+           
     e(109 -109) =      6.22291  eV     1   --> G_4-           
     e(110 -110) =      6.23228  eV     1   --> G_5-           
     e(111 -111) =      6.28972  eV     1   --> G_6+           
     e(112 -112) =      6.31892  eV     1   --> G_6+           
     e(113 -113) =      6.35450  eV     1   --> G_6-           
     e(114 -114) =      6.36099  eV     1   --> G_6-           
     e(115 -115) =      6.37281  eV     1   --> G_5-           
     e(116 -116) =      6.37487  eV     1   --> G_4-           
     e(117 -117) =      6.45272  eV     1   --> G_6+           
     e(118 -118) =      6.47039  eV     1   --> G_6+           
     e(119 -119) =      6.62891  eV     1   --> G_6-           
     e(120 -120) =      6.63097  eV     1   --> G_6-           
     e(121 -121) =      6.73647  eV     1   --> G_6+           
     e(122 -122) =      6.75588  eV     1   --> G_6+           
     e(123 -123) =      6.84672  eV     1   --> G_4-           
     e(124 -124) =      6.85356  eV     1   --> G_5-           
     e(125 -125) =      6.90399  eV     1   --> G_4+           
     e(126 -126) =      6.95499  eV     1   --> G_5+           
     e(127 -127) =      7.01359  eV     1   --> G_5-           
     e(128 -128) =      7.01899  eV     1   --> G_4-           
     e(129 -129) =      7.21872  eV     1   --> G_6-           
     e(130 -130) =      7.24676  eV     1   --> G_6-           
     e(131 -131) =      7.31864  eV     1   --> G_6-           
     e(132 -132) =      7.34485  eV     1   --> G_6-           
     e(133 -133) =      7.51136  eV     1   --> G_6+           
     e(134 -134) =      7.56040  eV     1   --> G_5+           
     e(135 -135) =      7.57337  eV     1   --> G_6+           
     e(136 -136) =      7.57928  eV     1   --> G_4+           
     e(137 -137) =      7.63356  eV     1   --> G_4+           
     e(138 -138) =      7.64393  eV     1   --> G_5+           
     e(139 -139) =      7.86328  eV     1   --> G_4-           
     e(140 -140) =      7.86434  eV     1   --> G_5-           
     e(141 -141) =      7.87144  eV     1   --> G_4-           
     e(142 -142) =      7.87588  eV     1   --> G_5-           
     e(143 -143) =      7.99144  eV     1   --> G_4+           
     e(144 -144) =      8.01315  eV     1   --> G_5+           
     e(145 -145) =      8.18287  eV     1   --> G_5-           
     e(146 -146) =      8.18538  eV     1   --> G_4-           
     e(147 -147) =      8.96557  eV     1   --> G_5+           
     e(148 -148) =      8.99395  eV     1   --> G_4+           
     e(149 -149) =      9.30069  eV     1   --> G_4+           
     e(150 -150) =      9.32852  eV     1   --> G_5+           
     e(151 -151) =      9.33310  eV     1   --> G_6+           
     e(152 -152) =      9.36806  eV     1   --> G_6+           
     e(153 -153) =      9.41636  eV     1   --> G_5-           
     e(154 -154) =      9.43108  eV     1   --> G_4-           
     e(155 -155) =      9.47083  eV     1   --> G_6-           
     e(156 -156) =      9.47992  eV     1   --> G_6-           
     e(157 -157) =      9.61101  eV     1   --> G_4-           
     e(158 -158) =      9.62194  eV     1   --> G_5-           
     e(159 -159) =      9.86467  eV     1   --> G_6-           
     e(160 -160) =      9.87345  eV     1   --> G_6-           
     e(161 -161) =      9.89093  eV     1   --> G_6+           
     e(162 -162) =      9.91555  eV     1   --> G_6+           
     e(163 -163) =     10.05331  eV     1   --> G_5+           
     e(164 -164) =     10.12939  eV     1   --> G_4+           
     e(165 -165) =     10.13045  eV     1   --> G_6+           
     e(166 -166) =     10.15301  eV     1   --> G_4+           
     e(167 -167) =     10.20306  eV     1   --> G_6+           
     e(168 -168) =     10.22253  eV     1   --> G_5+           
     e(169 -169) =     10.70242  eV     1   --> G_5+           
     e(170 -170) =     10.77758  eV     1   --> G_4+           
     e(171 -171) =     10.94298  eV     1   --> G_6+           
     e(172 -172) =     11.00913  eV     1   --> G_6+           
     e(173 -173) =     11.44947  eV     1   --> G_5-           
     e(174 -174) =     11.50594  eV     1   --> G_4-           
     e(175 -175) =     11.65516  eV     1   --> G_5+           
     e(176 -176) =     11.71260  eV     1   --> G_4+           
     e(177 -177) =     11.76740  eV     1   --> G_4-           
     e(178 -178) =     11.82076  eV     1   --> G_5-           
     e(179 -179) =     12.57245  eV     1   --> G_4+           
     e(180 -180) =     12.62610  eV     1   --> G_5+           
     e(181 -181) =     12.67956  eV     1   --> G_4-           
     e(182 -182) =     12.74569  eV     1   --> G_5-           
     e(183 -183) =     12.82529  eV     1   --> G_6-           
     e(184 -184) =     12.88934  eV     1   --> G_6-           
     e(185 -185) =     13.28227  eV     1   --> G_5-           
     e(186 -186) =     13.30998  eV     1   --> G_4+           
     e(187 -187) =     13.32197  eV     1   --> G_5+           
     e(188 -188) =     13.34365  eV     1   --> G_4-           
     e(189 -189) =     13.36264  eV     1   --> G_6-           
     e(190 -190) =     13.41302  eV     1   --> G_5+           
     e(191 -191) =     13.41858  eV     1   --> G_6-           
     e(192 -192) =     13.42842  eV     1   --> G_4+           
     e(193 -193) =     13.58555  eV     1   --> G_4-           
     e(194 -194) =     13.59808  eV     1   --> G_5-           
     e(195 -195) =     13.74029  eV     1   --> G_6+           
     e(196 -196) =     13.76402  eV     1   --> G_6+           
     e(197 -197) =     13.80176  eV     1   --> G_4+           
     e(198 -198) =     13.81359  eV     1   --> G_5+           
     e(199 -199) =     13.91951  eV     1   --> G_5-           
     e(200 -200) =     13.92335  eV     1   --> G_4-           

 **************************************************************************

 **************************************************************************

                    xk=(   0.00000,   0.00000,   0.01004  )

     the magnetic double point group is D_3 (32)    [C_3 (3)    ]
     using the double point group C_3 (3)    
     there are  6 classes and  3 irreducible representations
     the character table:

       E     -E    C3    -C3   C3^2  -C3^2
                                          
G_4    1.00 -1.00  0.50 -0.50  0.50 -0.50
G_5    1.00 -1.00  0.50 -0.50  0.50 -0.50
G_6    1.00 -1.00 -1.00  1.00 -1.00  1.00

     imaginary part

       E     -E    C3    -C3   C3^2  -C3^2
                                          
G_4    0.00  0.00  0.87 -0.87 -0.87  0.87
G_5    0.00  0.00 -0.87  0.87  0.87 -0.87
G_6    0.00  0.00  0.00  0.00  0.00  0.00

     the symmetry operations in each class and the name of the first element:

     E             1
                                                                 
     -E           -1
                                                                 
     C3            2
                                                                 
     -C3          -2
                                                                 
     C3^2          3
                                                                 
     -C3^2        -3
                                                                 

     Band symmetry, D_3 (32)    [C_3 (3)    ] magnetic double point group,
     using C_3 (3)    

     e(  1 -  1) =    -75.03737  eV     1   --> G_5            
     e(  2 -  2) =    -74.95802  eV     1   --> G_4            
     e(  3 -  3) =    -70.24590  eV     1   --> G_4            
     e(  4 -  4) =    -70.16060  eV     1   --> G_5            
     e(  5 -  5) =    -44.13519  eV     1   --> G_4            
     e(  6 -  6) =    -44.05145  eV     1   --> G_5            
     e(  7 -  7) =    -43.72710  eV     1   --> G_5            
     e(  8 -  8) =    -43.65015  eV     1   --> G_4            
     e(  9 -  9) =    -43.22684  eV     1   --> G_6            
     e( 10 - 10) =    -43.14317  eV     1   --> G_6            
     e( 11 - 11) =    -39.17804  eV     1   --> G_5            
     e( 12 - 12) =    -39.09834  eV     1   --> G_4            
     e( 13 - 13) =    -38.77043  eV     1   --> G_4            
     e( 14 - 14) =    -38.68513  eV     1   --> G_5            
     e( 15 - 15) =    -38.42574  eV     1   --> G_6            
     e( 16 - 16) =    -38.34600  eV     1   --> G_6            
     e( 17 - 17) =    -17.01817  eV     1   --> G_4            
     e( 18 - 18) =    -17.01790  eV     1   --> G_4            
     e( 19 - 19) =    -16.98370  eV     1   --> G_6            
     e( 20 - 20) =    -16.98354  eV     1   --> G_6            
     e( 21 - 21) =    -16.95910  eV     1   --> G_6            
     e( 22 - 22) =    -16.95893  eV     1   --> G_6            
     e( 23 - 23) =    -16.93568  eV     1   --> G_5            
     e( 24 - 24) =    -16.93542  eV     1   --> G_5            
     e( 25 - 25) =    -16.93512  eV     1   --> G_6            
     e( 26 - 26) =    -16.93496  eV     1   --> G_6            
     e( 27 - 27) =    -16.92466  eV     1   --> G_6            
     e( 28 - 28) =    -16.92450  eV     1   --> G_6            
     e( 29 - 29) =    -16.91466  eV     1   --> G_5            
     e( 30 - 30) =    -16.91441  eV     1   --> G_5            
     e( 31 - 31) =    -16.91355  eV     1   --> G_4            
     e( 32 - 32) =    -16.91329  eV     1   --> G_4            
     e( 33 - 33) =    -13.99593  eV     1   --> G_4            
     e( 34 - 34) =    -13.99574  eV     1   --> G_4            
     e( 35 - 35) =    -13.99458  eV     1   --> G_5            
     e( 36 - 36) =    -13.99443  eV     1   --> G_5            
     e( 37 - 37) =    -13.99192  eV     1   --> G_6            
     e( 38 - 38) =    -13.99174  eV     1   --> G_6            
     e( 39 - 39) =    -13.98391  eV     1   --> G_5            
     e( 40 - 40) =    -13.98363  eV     1   --> G_5            
     e( 41 - 41) =    -13.97388  eV     1   --> G_6            
     e( 42 - 42) =    -13.97371  eV     1   --> G_6            
     e( 43 - 43) =    -13.97141  eV     1   --> G_4            
     e( 44 - 44) =    -13.97118  eV     1   --> G_4            
     e( 45 - 45) =    -13.95668  eV     1   --> G_5            
     e( 46 - 46) =    -13.95647  eV     1   --> G_5            
     e( 47 - 47) =    -13.95314  eV     1   --> G_4            
     e( 48 - 48) =    -13.95299  eV     1   --> G_4            
     e( 49 - 49) =    -13.94513  eV     1   --> G_6            
     e( 50 - 50) =    -13.94495  eV     1   --> G_6            
     e( 51 - 51) =    -13.93784  eV     1   --> G_6            
     e( 52 - 52) =    -13.93767  eV     1   --> G_6            
     e( 53 - 53) =    -13.93739  eV     1   --> G_5            
     e( 54 - 54) =    -13.93719  eV     1   --> G_5            
     e( 55 - 55) =    -13.93325  eV     1   --> G_4            
     e( 56 - 56) =    -13.93298  eV     1   --> G_4            
     e( 57 - 57) =     -5.48721  eV     1   --> G_5            
     e( 58 - 58) =     -5.48481  eV     1   --> G_4            
     e( 59 - 59) =     -5.45632  eV     1   --> G_5            
     e( 60 - 60) =     -5.45503  eV     1   --> G_4            
     e( 61 - 61) =     -5.27196  eV     1   --> G_4            
     e( 62 - 62) =     -5.26767  eV     1   --> G_5            
     e( 63 - 63) =     -5.22259  eV     1   --> G_4            
     e( 64 - 64) =     -5.21891  eV     1   --> G_5            
     e( 65 - 65) =     -3.82523  eV     1   --> G_5            
     e( 66 - 66) =     -3.81053  eV     1   --> G_4            
     e( 67 - 67) =     -3.61105  eV     1   --> G_4            
     e( 68 - 68) =     -3.59492  eV     1   --> G_5            
     e( 69 - 69) =     -3.33043  eV     1   --> G_5            
     e( 70 - 70) =     -3.32831  eV     1   --> G_4            
     e( 71 - 71) =     -3.05567  eV     1   --> G_4            
     e( 72 - 72) =     -3.05280  eV     1   --> G_5            
     e( 73 - 73) =     -1.46898  eV     1   --> G_5            
     e( 74 - 74) =     -1.46556  eV     1   --> G_4            
     e( 75 - 75) =     -1.11698  eV     1   --> G_5            
     e( 76 - 76) =     -1.11532  eV     1   --> G_4            
     e( 77 - 77) =     -0.79288  eV     1   --> G_4            
     e( 78 - 78) =     -0.78993  eV     1   --> G_5            
     e( 79 - 79) =     -0.50063  eV     1   --> G_4            
     e( 80 - 80) =     -0.49983  eV     1   --> G_5            
     e( 81 - 81) =      1.81059  eV     1   --> G_6            
     e( 82 - 82) =      1.83986  eV     1   --> G_4            
     e( 83 - 83) =      1.89003  eV     1   --> G_5            
     e( 84 - 84) =      1.89128  eV     1   --> G_6            
     e( 85 - 85) =      1.92037  eV     1   --> G_5            
     e( 86 - 86) =      1.96597  eV     1   --> G_4            
     e( 87 - 87) =      2.08338  eV     1   --> G_4            
     e( 88 - 88) =      2.10159  eV     1   --> G_6            
     e( 89 - 89) =      2.16443  eV     1   --> G_5            
     e( 90 - 90) =      2.18259  eV     1   --> G_6            
     e( 91 - 91) =      3.99278  eV     1   --> G_4            
     e( 92 - 92) =      4.00062  eV     1   --> G_5            
     e( 93 - 93) =      4.26553  eV     1   --> G_5            
     e( 94 - 94) =      4.27904  eV     1   --> G_4            
     e( 95 - 95) =      4.67837  eV     1   --> G_4            
     e( 96 - 96) =      4.68989  eV     1   --> G_5            
     e( 97 - 97) =      5.20289  eV     1   --> G_4            
     e( 98 - 98) =      5.20353  eV     1   --> G_5            
     e( 99 - 99) =      5.22892  eV     1   --> G_4            
     e(100 -100) =      5.23938  eV     1   --> G_5            
     e(101 -101) =      5.50043  eV     1   --> G_5            
     e(102 -102) =      5.50370  eV     1   --> G_4            
     e(103 -103) =      5.73567  eV     1   --> G_5            
     e(104 -104) =      5.74857  eV     1   --> G_4            
     e(105 -105) =      5.76244  eV     1   --> G_5            
     e(106 -106) =      5.77274  eV     1   --> G_4            
     e(107 -107) =      6.13678  eV     1   --> G_5            
     e(108 -108) =      6.19063  eV     1   --> G_4            
     e(109 -109) =      6.22305  eV     1   --> G_4            
     e(110 -110) =      6.23234  eV     1   --> G_5            
     e(111 -111) =      6.28972  eV     1   --> G_6            
     e(112 -112) =      6.31892  eV     1   --> G_6            
     e(113 -113) =      6.35451  eV     1   --> G_6            
     e(114 -114) =      6.36099  eV     1   --> G_6            
     e(115 -115) =      6.37279  eV     1   --> G_5            
     e(116 -116) =      6.37484  eV     1   --> G_4            
     e(117 -117) =      6.45272  eV     1   --> G_6            
     e(118 -118) =      6.47039  eV     1   --> G_6            
     e(119 -119) =      6.62891  eV     1   --> G_6            
     e(120 -120) =      6.63098  eV     1   --> G_6            
     e(121 -121) =      6.73647  eV     1   --> G_6            
     e(122 -122) =      6.75588  eV     1   --> G_6            
     e(123 -123) =      6.84674  eV     1   --> G_4            
     e(124 -124) =      6.85359  eV     1   --> G_5            
     e(125 -125) =      6.90400  eV     1   --> G_4            
     e(126 -126) =      6.95501  eV     1   --> G_5            
     e(127 -127) =      7.01355  eV     1   --> G_5            
     e(128 -128) =      7.01896  eV     1   --> G_4            
     e(129 -129) =      7.21873  eV     1   --> G_6            
     e(130 -130) =      7.24678  eV     1   --> G_6            
     e(131 -131) =      7.31863  eV     1   --> G_6            
     e(132 -132) =      7.34483  eV     1   --> G_6            
     e(133 -133) =      7.51136  eV     1   --> G_6            
     e(134 -134) =      7.56037  eV     1   --> G_5            
     e(135 -135) =      7.57337  eV     1   --> G_6            
     e(136 -136) =      7.57925  eV     1   --> G_4            
     e(137 -137) =      7.63357  eV     1   --> G_4            
     e(138 -138) =      7.64395  eV     1   --> G_5            
     e(139 -139) =      7.86329  eV     1   --> G_4            
     e(140 -140) =      7.86434  eV     1   --> G_5            
     e(141 -141) =      7.87145  eV     1   --> G_4            
     e(142 -142) =      7.87591  eV     1   --> G_5            
     e(143 -143) =      7.99148  eV     1   --> G_4            
     e(144 -144) =      8.01318  eV     1   --> G_5            
     e(145 -145) =      8.18282  eV     1   --> G_5            
     e(146 -146) =      8.18533  eV     1   --> G_4            
     e(147 -147) =      8.96560  eV     1   --> G_5            
     e(148 -148) =      8.99399  eV     1   --> G_4            
     e(149 -149) =      9.30058  eV     1   --> G_4            
     e(150 -150) =      9.32838  eV     1   --> G_5            
     e(151 -151) =      9.33306  eV     1   --> G_6            
     e(152 -152) =      9.36799  eV     1   --> G_6            
     e(153 -153) =      9.41651  eV     1   --> G_5            
     e(154 -154) =      9.43119  eV     1   --> G_4            
     e(155 -155) =      9.47094  eV     1   --> G_6            
     e(156 -156) =      9.48000  eV     1   --> G_6            
     e(157 -157) =      9.61098  eV     1   --> G_4            
     e(158 -158) =      9.62191  eV     1   --> G_5            
     e(159 -159) =      9.86435  eV     1   --> G_6            
     e(160 -160) =      9.87266  eV     1   --> G_6            
     e(161 -161) =      9.89169  eV     1   --> G_6            
     e(162 -162) =      9.91582  eV     1   --> G_6            
     e(163 -163) =     10.05331  eV     1   --> G_5            
     e(164 -164) =     10.12938  eV     1   --> G_4            
     e(165 -165) =     10.13044  eV     1   --> G_6            
     e(166 -166) =     10.15301  eV     1   --> G_4            
     e(167 -167) =     10.20305  eV     1   --> G_6            
     e(168 -168) =     10.22253  eV     1   --> G_5            
     e(169 -169) =     10.70243  eV     1   --> G_5            
     e(170 -170) =     10.77759  eV     1   --> G_4            
     e(171 -171) =     10.94298  eV     1   --> G_6            
     e(172 -172) =     11.00913  eV     1   --> G_6            
     e(173 -173) =     11.44948  eV     1   --> G_5            
     e(174 -174) =     11.50595  eV     1   --> G_4            
     e(175 -175) =     11.65514  eV     1   --> G_5            
     e(176 -176) =     11.71255  eV     1   --> G_4            
     e(177 -177) =     11.76744  eV     1   --> G_4            
     e(178 -178) =     11.82077  eV     1   --> G_5            
     e(179 -179) =     12.57247  eV     1   --> G_4            
     e(180 -180) =     12.62613  eV     1   --> G_5            
     e(181 -181) =     12.67956  eV     1   --> G_4            
     e(182 -182) =     12.74569  eV     1   --> G_5            
     e(183 -183) =     12.82529  eV     1   --> G_6            
     e(184 -184) =     12.88935  eV     1   --> G_6            
     e(185 -185) =     13.28224  eV     1   --> G_5            
     e(186 -186) =     13.30994  eV     1   --> G_4            
     e(187 -187) =     13.32193  eV     1   --> G_5            
     e(188 -188) =     13.34365  eV     1   --> G_4            
     e(189 -189) =     13.36263  eV     1   --> G_6            
     e(190 -190) =     13.41296  eV     1   --> G_5            
     e(191 -191) =     13.41857  eV     1   --> G_6            
     e(192 -192) =     13.42833  eV     1   --> G_4            
     e(193 -193) =     13.58567  eV     1   --> G_4            
     e(194 -194) =     13.59817  eV     1   --> G_5            
     e(195 -195) =     13.74036  eV     1   --> G_6            
     e(196 -196) =     13.76409  eV     1   --> G_6            
     e(197 -197) =     13.80180  eV     1   --> G_4            
     e(198 -198) =     13.81364  eV     1   --> G_5            
     e(199 -199) =     13.91933  eV     1   --> G_5            
     e(200 -200) =     13.92307  eV     1   --> G_4            

 **************************************************************************

 **************************************************************************

                    xk=(   0.00000,   0.00000,   0.02008  )

     Band symmetry, D_3 (32)    [C_3 (3)    ] magnetic double point group,
     using C_3 (3)    

     e(  1 -  1) =    -75.03737  eV     1   --> G_5            
     e(  2 -  2) =    -74.95802  eV     1   --> G_4            
     e(  3 -  3) =    -70.24590  eV     1   --> G_4            
     e(  4 -  4) =    -70.16060  eV     1   --> G_5            
     e(  5 -  5) =    -44.13519  eV     1   --> G_4            
     e(  6 -  6) =    -44.05145  eV     1   --> G_5            
     e(  7 -  7) =    -43.72710  eV     1   --> G_5            
     e(  8 -  8) =    -43.65015  eV     1   --> G_4            
     e(  9 -  9) =    -43.22684  eV     1   --> G_6            
     e( 10 - 10) =    -43.14317  eV     1   --> G_6            
     e( 11 - 11) =    -39.17804  eV     1   --> G_5            
     e( 12 - 12) =    -39.09834  eV     1   --> G_4            
     e( 13 - 13) =    -38.77043  eV     1   --> G_4            
     e( 14 - 14) =    -38.68513  eV     1   --> G_5            
     e( 15 - 15) =    -38.42574  eV     1   --> G_6            
     e( 16 - 16) =    -38.34600  eV     1   --> G_6            
     e( 17 - 17) =    -17.01817  eV     1   --> G_4            
     e( 18 - 18) =    -17.01790  eV     1   --> G_4            
     e( 19 - 19) =    -16.98370  eV     1   --> G_6            
     e( 20 - 20) =    -16.98354  eV     1   --> G_6            
     e( 21 - 21) =    -16.95910  eV     1   --> G_6            
     e( 22 - 22) =    -16.95893  eV     1   --> G_6            
     e( 23 - 23) =    -16.93568  eV     1   --> G_5            
     e( 24 - 24) =    -16.93542  eV     1   --> G_5            
     e( 25 - 25) =    -16.93512  eV     1   --> G_6            
     e( 26 - 26) =    -16.93496  eV     1   --> G_6            
     e( 27 - 27) =    -16.92466  eV     1   --> G_6            
     e( 28 - 28) =    -16.92450  eV     1   --> G_6            
     e( 29 - 29) =    -16.91466  eV     1   --> G_5            
     e( 30 - 30) =    -16.91441  eV     1   --> G_5            
     e( 31 - 31) =    -16.91355  eV     1   --> G_4            
     e( 32 - 32) =    -16.91329  eV     1   --> G_4            
     e( 33 - 33) =    -13.99593  eV     1   --> G_4            
     e( 34 - 34) =    -13.99574  eV     1   --> G_4            
     e( 35 - 35) =    -13.99458  eV     1   --> G_5            
     e( 36 - 36) =    -13.99443  eV     1   --> G_5            
     e( 37 - 37) =    -13.99192  eV     1   --> G_6            
     e( 38 - 38) =    -13.99174  eV     1   --> G_6            
     e( 39 - 39) =    -13.98391  eV     1   --> G_5            
     e( 40 - 40) =    -13.98363  eV     1   --> G_5            
     e( 41 - 41) =    -13.97388  eV     1   --> G_6            
     e( 42 - 42) =    -13.97371  eV     1   --> G_6            
     e( 43 - 43) =    -13.97141  eV     1   --> G_4            
     e( 44 - 44) =    -13.97118  eV     1   --> G_4            
     e( 45 - 45) =    -13.95668  eV     1   --> G_5            
     e( 46 - 46) =    -13.95647  eV     1   --> G_5            
     e( 47 - 47) =    -13.95314  eV     1   --> G_4            
     e( 48 - 48) =    -13.95299  eV     1   --> G_4            
     e( 49 - 49) =    -13.94513  eV     1   --> G_6            
     e( 50 - 50) =    -13.94495  eV     1   --> G_6            
     e( 51 - 51) =    -13.93784  eV     1   --> G_6            
     e( 52 - 52) =    -13.93767  eV     1   --> G_6            
     e( 53 - 53) =    -13.93739  eV     1   --> G_5            
     e( 54 - 54) =    -13.93719  eV     1   --> G_5            
     e( 55 - 55) =    -13.93325  eV     1   --> G_4            
     e( 56 - 56) =    -13.93298  eV     1   --> G_4            
     e( 57 - 57) =     -5.48719  eV     1   --> G_5            
     e( 58 - 58) =     -5.48480  eV     1   --> G_4            
     e( 59 - 59) =     -5.45634  eV     1   --> G_5            
     e( 60 - 60) =     -5.45506  eV     1   --> G_4            
     e( 61 - 61) =     -5.27192  eV     1   --> G_4            
     e( 62 - 62) =     -5.26763  eV     1   --> G_5            
     e( 63 - 63) =     -5.22262  eV     1   --> G_4            
     e( 64 - 64) =     -5.21895  eV     1   --> G_5            
     e( 65 - 65) =     -3.82515  eV     1   --> G_5            
     e( 66 - 66) =     -3.81043  eV     1   --> G_4            
     e( 67 - 67) =     -3.61132  eV     1   --> G_4            
     e( 68 - 68) =     -3.59518  eV     1   --> G_5            
     e( 69 - 69) =     -3.33011  eV     1   --> G_5            
     e( 70 - 70) =     -3.32800  eV     1   --> G_4            
     e( 71 - 71) =     -3.05583  eV     1   --> G_4            
     e( 72 - 72) =     -3.05296  eV     1   --> G_5            
     e( 73 - 73) =     -1.46879  eV     1   --> G_5            
     e( 74 - 74) =     -1.46536  eV     1   --> G_4            
     e( 75 - 75) =     -1.11743  eV     1   --> G_5            
     e( 76 - 76) =     -1.11577  eV     1   --> G_4            
     e( 77 - 77) =     -0.79246  eV     1   --> G_4            
     e( 78 - 78) =     -0.78952  eV     1   --> G_5            
     e( 79 - 79) =     -0.50077  eV     1   --> G_4            
     e( 80 - 80) =     -0.49998  eV     1   --> G_5            
     e( 81 - 81) =      1.81059  eV     1   --> G_6            
     e( 82 - 82) =      1.83986  eV     1   --> G_4            
     e( 83 - 83) =      1.89003  eV     1   --> G_5            
     e( 84 - 84) =      1.89128  eV     1   --> G_6            
     e( 85 - 85) =      1.92037  eV     1   --> G_5            
     e( 86 - 86) =      1.96597  eV     1   --> G_4            
     e( 87 - 87) =      2.08338  eV     1   --> G_4            
     e( 88 - 88) =      2.10159  eV     1   --> G_6            
     e( 89 - 89) =      2.16443  eV     1   --> G_5            
     e( 90 - 90) =      2.18259  eV     1   --> G_6            
     e( 91 - 91) =      3.99291  eV     1   --> G_4            
     e( 92 - 92) =      4.00075  eV     1   --> G_5            
     e( 93 - 93) =      4.26519  eV     1   --> G_5            
     e( 94 - 94) =      4.27870  eV     1   --> G_4            
     e( 95 - 95) =      4.67880  eV     1   --> G_4            
     e( 96 - 96) =      4.69031  eV     1   --> G_5            
     e( 97 - 97) =      5.19982  eV     1   --> G_4            
     e( 98 - 98) =      5.20123  eV     1   --> G_5            
     e( 99 - 99) =      5.23188  eV     1   --> G_4            
     e(100 -100) =      5.24155  eV     1   --> G_5            
     e(101 -101) =      5.50035  eV     1   --> G_5            
     e(102 -102) =      5.50360  eV     1   --> G_4            
     e(103 -103) =      5.73564  eV     1   --> G_5            
     e(104 -104) =      5.74853  eV     1   --> G_4            
     e(105 -105) =      5.76249  eV     1   --> G_5            
     e(106 -106) =      5.77281  eV     1   --> G_4            
     e(107 -107) =      6.13664  eV     1   --> G_5            
     e(108 -108) =      6.19024  eV     1   --> G_4            
     e(109 -109) =      6.22348  eV     1   --> G_4            
     e(110 -110) =      6.23250  eV     1   --> G_5            
     e(111 -111) =      6.28972  eV     1   --> G_6            
     e(112 -112) =      6.31892  eV     1   --> G_6            
     e(113 -113) =      6.35452  eV     1   --> G_6            
     e(114 -114) =      6.36099  eV     1   --> G_6            
     e(115 -115) =      6.37273  eV     1   --> G_5            
     e(116 -116) =      6.37477  eV     1   --> G_4            
     e(117 -117) =      6.45271  eV     1   --> G_6            
     e(118 -118) =      6.47038  eV     1   --> G_6            
     e(119 -119) =      6.62893  eV     1   --> G_6            
     e(120 -120) =      6.63099  eV     1   --> G_6            
     e(121 -121) =      6.73645  eV     1   --> G_6            
     e(122 -122) =      6.75586  eV     1   --> G_6            
     e(123 -123) =      6.84683  eV     1   --> G_4            
     e(124 -124) =      6.85367  eV     1   --> G_5            
     e(125 -125) =      6.90405  eV     1   --> G_4            
     e(126 -126) =      6.95505  eV     1   --> G_5            
     e(127 -127) =      7.01345  eV     1   --> G_5            
     e(128 -128) =      7.01885  eV     1   --> G_4            
     e(129 -129) =      7.21876  eV     1   --> G_6            
     e(130 -130) =      7.24682  eV     1   --> G_6            
     e(131 -131) =      7.31858  eV     1   --> G_6            
     e(132 -132) =      7.34478  eV     1   --> G_6            
     e(133 -133) =      7.51138  eV     1   --> G_6            
     e(134 -134) =      7.56026  eV     1   --> G_5            
     e(135 -135) =      7.57338  eV     1   --> G_6            
     e(136 -136) =      7.57917  eV     1   --> G_4            
     e(137 -137) =      7.63361  eV     1   --> G_4            
     e(138 -138) =      7.64402  eV     1   --> G_5            
     e(139 -139) =      7.86331  eV     1   --> G_4            
     e(140 -140) =      7.86434  eV     1   --> G_5            
     e(141 -141) =      7.87148  eV     1   --> G_4            
     e(142 -142) =      7.87597  eV     1   --> G_5            
     e(143 -143) =      7.99159  eV     1   --> G_4            
     e(144 -144) =      8.01328  eV     1   --> G_5            
     e(145 -145) =      8.18267  eV     1   --> G_5            
     e(146 -146) =      8.18519  eV     1   --> G_4            
     e(147 -147) =      8.96570  eV     1   --> G_5            
     e(148 -148) =      8.99410  eV     1   --> G_4            
     e(149 -149) =      9.30026  eV     1   --> G_4            
     e(150 -150) =      9.32794  eV     1   --> G_5            
     e(151 -151) =      9.33293  eV     1   --> G_6            
     e(152 -152) =      9.36779  eV     1   --> G_6            
     e(153 -153) =      9.41695  eV     1   --> G_5            
     e(154 -154) =      9.43151  eV     1   --> G_4            
     e(155 -155) =      9.47128  eV     1   --> G_6            
     e(156 -156) =      9.48025  eV     1   --> G_6            
     e(157 -157) =      9.61089  eV     1   --> G_4            
     e(158 -158) =      9.62183  eV     1   --> G_5            
     e(159 -159) =      9.86341  eV     1   --> G_6            
     e(160 -160) =      9.87061  eV     1   --> G_6            
     e(161 -161) =      9.89366  eV     1   --> G_6            
     e(162 -162) =      9.91661  eV     1   --> G_6            
     e(163 -163) =     10.05331  eV     1   --> G_5            
     e(164 -164) =     10.12939  eV     1   --> G_4            
     e(165 -165) =     10.13043  eV     1   --> G_6            
     e(166 -166) =     10.15301  eV     1   --> G_4            
     e(167 -167) =     10.20304  eV     1   --> G_6            
     e(168 -168) =     10.22253  eV     1   --> G_5            
     e(169 -169) =     10.70243  eV     1   --> G_5            
     e(170 -170) =     10.77758  eV     1   --> G_4            
     e(171 -171) =     10.94297  eV     1   --> G_6            
     e(172 -172) =     11.00912  eV     1   --> G_6            
     e(173 -173) =     11.44950  eV     1   --> G_5            
     e(174 -174) =     11.50598  eV     1   --> G_4            
     e(175 -175) =     11.65510  eV     1   --> G_5            
     e(176 -176) =     11.71239  eV     1   --> G_4            
     e(177 -177) =     11.76755  eV     1   --> G_4            
     e(178 -178) =     11.82078  eV     1   --> G_5            
     e(179 -179) =     12.57254  eV     1   --> G_4            
     e(180 -180) =     12.62621  eV     1   --> G_5            
     e(181 -181) =     12.67956  eV     1   --> G_4            
     e(182 -182) =     12.74569  eV     1   --> G_5            
     e(183 -183) =     12.82530  eV     1   --> G_6            
     e(184 -184) =     12.88935  eV     1   --> G_6            
     e(185 -185) =     13.28214  eV     1   --> G_5            
     e(186 -186) =     13.30982  eV     1   --> G_4            
     e(187 -187) =     13.32182  eV     1   --> G_5            
     e(188 -188) =     13.34364  eV     1   --> G_4            
     e(189 -189) =     13.36262  eV     1   --> G_6            
     e(190 -190) =     13.41281  eV     1   --> G_5            
     e(191 -191) =     13.41854  eV     1   --> G_6            
     e(192 -192) =     13.42803  eV     1   --> G_4            
     e(193 -193) =     13.58602  eV     1   --> G_4            
     e(194 -194) =     13.59845  eV     1   --> G_5            
     e(195 -195) =     13.74058  eV     1   --> G_6            
     e(196 -196) =     13.76430  eV     1   --> G_6            
     e(197 -197) =     13.80194  eV     1   --> G_4            
     e(198 -198) =     13.81378  eV     1   --> G_5            
     e(199 -199) =     13.91882  eV     1   --> G_5            
     e(200 -200) =     13.92224  eV     1   --> G_4            

 **************************************************************************

 **************************************************************************

                    xk=(   0.00000,   0.00000,   0.03013  )

     Band symmetry, D_3 (32)    [C_3 (3)    ] magnetic double point group,
     using C_3 (3)    

     e(  1 -  1) =    -75.03737  eV     1   --> G_5            
     e(  2 -  2) =    -74.95802  eV     1   --> G_4            
     e(  3 -  3) =    -70.24590  eV     1   --> G_4            
     e(  4 -  4) =    -70.16060  eV     1   --> G_5            
     e(  5 -  5) =    -44.13519  eV     1   --> G_4            
     e(  6 -  6) =    -44.05145  eV     1   --> G_5            
     e(  7 -  7) =    -43.72710  eV     1   --> G_5            
     e(  8 -  8) =    -43.65015  eV     1   --> G_4            
     e(  9 -  9) =    -43.22684  eV     1   --> G_6            
     e( 10 - 10) =    -43.14317  eV     1   --> G_6            
     e( 11 - 11) =    -39.17804  eV     1   --> G_5            
     e( 12 - 12) =    -39.09834  eV     1   --> G_4            
     e( 13 - 13) =    -38.77043  eV     1   --> G_4            
     e( 14 - 14) =    -38.68513  eV     1   --> G_5            
     e( 15 - 15) =    -38.42574  eV     1   --> G_6            
     e( 16 - 16) =    -38.34600  eV     1   --> G_6            
     e( 17 - 17) =    -17.01818  eV     1   --> G_4            
     e( 18 - 18) =    -17.01791  eV     1   --> G_4            
     e( 19 - 19) =    -16.98371  eV     1   --> G_6            
     e( 20 - 20) =    -16.98355  eV     1   --> G_6            
     e( 21 - 21) =    -16.95910  eV     1   --> G_6            
     e( 22 - 22) =    -16.95894  eV     1   --> G_6            
     e( 23 - 23) =    -16.93568  eV     1   --> G_5            
     e( 24 - 24) =    -16.93542  eV     1   --> G_5            
     e( 25 - 25) =    -16.93512  eV     1   --> G_6            
     e( 26 - 26) =    -16.93496  eV     1   --> G_6            
     e( 27 - 27) =    -16.92467  eV     1   --> G_6            
     e( 28 - 28) =    -16.92450  eV     1   --> G_6            
     e( 29 - 29) =    -16.91466  eV     1   --> G_5            
     e( 30 - 30) =    -16.91442  eV     1   --> G_5            
     e( 31 - 31) =    -16.91355  eV     1   --> G_4            
     e( 32 - 32) =    -16.91329  eV     1   --> G_4            
     e( 33 - 33) =    -13.99594  eV     1   --> G_4            
     e( 34 - 34) =    -13.99574  eV     1   --> G_4            
     e( 35 - 35) =    -13.99458  eV     1   --> G_5            
     e( 36 - 36) =    -13.99444  eV     1   --> G_5            
     e( 37 - 37) =    -13.99192  eV     1   --> G_6            
     e( 38 - 38) =    -13.99175  eV     1   --> G_6            
     e( 39 - 39) =    -13.98391  eV     1   --> G_5            
     e( 40 - 40) =    -13.98364  eV     1   --> G_5            
     e( 41 - 41) =    -13.97389  eV     1   --> G_6            
     e( 42 - 42) =    -13.97372  eV     1   --> G_6            
     e( 43 - 43) =    -13.97141  eV     1   --> G_4            
     e( 44 - 44) =    -13.97119  eV     1   --> G_4            
     e( 45 - 45) =    -13.95669  eV     1   --> G_5            
     e( 46 - 46) =    -13.95647  eV     1   --> G_5            
     e( 47 - 47) =    -13.95314  eV     1   --> G_4            
     e( 48 - 48) =    -13.95299  eV     1   --> G_4            
     e( 49 - 49) =    -13.94513  eV     1   --> G_6            
     e( 50 - 50) =    -13.94496  eV     1   --> G_6            
     e( 51 - 51) =    -13.93784  eV     1   --> G_6            
     e( 52 - 52) =    -13.93768  eV     1   --> G_6            
     e( 53 - 53) =    -13.93740  eV     1   --> G_5            
     e( 54 - 54) =    -13.93720  eV     1   --> G_5            
     e( 55 - 55) =    -13.93326  eV     1   --> G_4            
     e( 56 - 56) =    -13.93299  eV     1   --> G_4            
     e( 57 - 57) =     -5.48716  eV     1   --> G_5            
     e( 58 - 58) =     -5.48477  eV     1   --> G_4            
     e( 59 - 59) =     -5.45638  eV     1   --> G_5            
     e( 60 - 60) =     -5.45511  eV     1   --> G_4            
     e( 61 - 61) =     -5.27185  eV     1   --> G_4            
     e( 62 - 62) =     -5.26756  eV     1   --> G_5            
     e( 63 - 63) =     -5.22268  eV     1   --> G_4            
     e( 64 - 64) =     -5.21900  eV     1   --> G_5            
     e( 65 - 65) =     -3.82501  eV     1   --> G_5            
     e( 66 - 66) =     -3.81026  eV     1   --> G_4            
     e( 67 - 67) =     -3.61177  eV     1   --> G_4            
     e( 68 - 68) =     -3.59561  eV     1   --> G_5            
     e( 69 - 69) =     -3.32958  eV     1   --> G_5            
     e( 70 - 70) =     -3.32748  eV     1   --> G_4            
     e( 71 - 71) =     -3.05609  eV     1   --> G_4            
     e( 72 - 72) =     -3.05322  eV     1   --> G_5            
     e( 73 - 73) =     -1.46847  eV     1   --> G_5            
     e( 74 - 74) =     -1.46504  eV     1   --> G_4            
     e( 75 - 75) =     -1.11818  eV     1   --> G_5            
     e( 76 - 76) =     -1.11654  eV     1   --> G_4            
     e( 77 - 77) =     -0.79176  eV     1   --> G_4            
     e( 78 - 78) =     -0.78883  eV     1   --> G_5            
     e( 79 - 79) =     -0.50101  eV     1   --> G_4            
     e( 80 - 80) =     -0.50022  eV     1   --> G_5            
     e( 81 - 81) =      1.81059  eV     1   --> G_6            
     e( 82 - 82) =      1.83986  eV     1   --> G_4            
     e( 83 - 83) =      1.89003  eV     1   --> G_5            
     e( 84 - 84) =      1.89128  eV     1   --> G_6            
     e( 85 - 85) =      1.92036  eV     1   --> G_5            
     e( 86 - 86) =      1.96597  eV     1   --> G_4            
     e( 87 - 87) =      2.08337  eV     1   --> G_4            
     e( 88 - 88) =      2.10158  eV     1   --> G_6            
     e( 89 - 89) =      2.16442  eV     1   --> G_5            
     e( 90 - 90) =      2.18259  eV     1   --> G_6            
     e( 91 - 91) =      3.99312  eV     1   --> G_4            
     e( 92 - 92) =      4.00098  eV     1   --> G_5            
     e( 93 - 93) =      4.26462  eV     1   --> G_5            
     e( 94 - 94) =      4.27813  eV     1   --> G_4            
     e( 95 - 95) =      4.67952  eV     1   --> G_4            
     e( 96 - 96) =      4.69100  eV     1   --> G_5            
     e( 97 - 97) =      5.19567  eV     1   --> G_4            
     e( 98 - 98) =      5.19786  eV     1   --> G_5            
     e( 99 - 99) =      5.23581  eV     1   --> G_4            
     e(100 -100) =      5.24470  eV     1   --> G_5            
     e(101 -101) =      5.50021  eV     1   --> G_5            
     e(102 -102) =      5.50345  eV     1   --> G_4            
     e(103 -103) =      5.73559  eV     1   --> G_5            
     e(104 -104) =      5.74846  eV     1   --> G_4            
     e(105 -105) =      5.76258  eV     1   --> G_5            
     e(106 -106) =      5.77292  eV     1   --> G_4            
     e(107 -107) =      6.13639  eV     1   --> G_5            
     e(108 -108) =      6.18961  eV     1   --> G_4            
     e(109 -109) =      6.22417  eV     1   --> G_4            
     e(110 -110) =      6.23276  eV     1   --> G_5            
     e(111 -111) =      6.28971  eV     1   --> G_6            
     e(112 -112) =      6.31891  eV     1   --> G_6            
     e(113 -113) =      6.35453  eV     1   --> G_6            
     e(114 -114) =      6.36099  eV     1   --> G_6            
     e(115 -115) =      6.37264  eV     1   --> G_5            
     e(116 -116) =      6.37464  eV     1   --> G_4            
     e(117 -117) =      6.45270  eV     1   --> G_6            
     e(118 -118) =      6.47037  eV     1   --> G_6            
     e(119 -119) =      6.62895  eV     1   --> G_6            
     e(120 -120) =      6.63102  eV     1   --> G_6            
     e(121 -121) =      6.73643  eV     1   --> G_6            
     e(122 -122) =      6.75584  eV     1   --> G_6            
     e(123 -123) =      6.84697  eV     1   --> G_4            
     e(124 -124) =      6.85382  eV     1   --> G_5            
     e(125 -125) =      6.90414  eV     1   --> G_4            
     e(126 -126) =      6.95511  eV     1   --> G_5            
     e(127 -127) =      7.01327  eV     1   --> G_5            
     e(128 -128) =      7.01867  eV     1   --> G_4            
     e(129 -129) =      7.21882  eV     1   --> G_6            
     e(130 -130) =      7.24689  eV     1   --> G_6            
     e(131 -131) =      7.31849  eV     1   --> G_6            
     e(132 -132) =      7.34470  eV     1   --> G_6            
     e(133 -133) =      7.51141  eV     1   --> G_6            
     e(134 -134) =      7.56008  eV     1   --> G_5            
     e(135 -135) =      7.57340  eV     1   --> G_6            
     e(136 -136) =      7.57903  eV     1   --> G_4            
     e(137 -137) =      7.63366  eV     1   --> G_4            
     e(138 -138) =      7.64412  eV     1   --> G_5            
     e(139 -139) =      7.86335  eV     1   --> G_4            
     e(140 -140) =      7.86432  eV     1   --> G_5            
     e(141 -141) =      7.87155  eV     1   --> G_4            
     e(142 -142) =      7.87609  eV     1   --> G_5            
     e(143 -143) =      7.99177  eV     1   --> G_4            
     e(144 -144) =      8.01344  eV     1   --> G_5            
     e(145 -145) =      8.18243  eV     1   --> G_5            
     e(146 -146) =      8.18495  eV     1   --> G_4            
     e(147 -147) =      8.96587  eV     1   --> G_5            
     e(148 -148) =      8.99429  eV     1   --> G_4            
     e(149 -149) =      9.29972  eV     1   --> G_4            
     e(150 -150) =      9.32722  eV     1   --> G_5            
     e(151 -151) =      9.33273  eV     1   --> G_6            
     e(152 -152) =      9.36745  eV     1   --> G_6            
     e(153 -153) =      9.41768  eV     1   --> G_5            
     e(154 -154) =      9.43204  eV     1   --> G_4            
     e(155 -155) =      9.47183  eV     1   --> G_6            
     e(156 -156) =      9.48066  eV     1   --> G_6            
     e(157 -157) =      9.61075  eV     1   --> G_4            
     e(158 -158) =      9.62170  eV     1   --> G_5            
     e(159 -159) =      9.86191  eV     1   --> G_6            
     e(160 -160) =      9.86783  eV     1   --> G_6            
     e(161 -161) =      9.89632  eV     1   --> G_6            
     e(162 -162) =      9.91786  eV     1   --> G_6            
     e(163 -163) =     10.05330  eV     1   --> G_5            
     e(164 -164) =     10.12938  eV     1   --> G_4            
     e(165 -165) =     10.13041  eV     1   --> G_6            
     e(166 -166) =     10.15300  eV     1   --> G_4            
     e(167 -167) =     10.20303  eV     1   --> G_6            
     e(168 -168) =     10.22253  eV     1   --> G_5            
     e(169 -169) =     10.70242  eV     1   --> G_5            
     e(170 -170) =     10.77758  eV     1   --> G_4            
     e(171 -171) =     10.94295  eV     1   --> G_6            
     e(172 -172) =     11.00910  eV     1   --> G_6            
     e(173 -173) =     11.44953  eV     1   --> G_5            
     e(174 -174) =     11.50603  eV     1   --> G_4            
     e(175 -175) =     11.65503  eV     1   --> G_5            
     e(176 -176) =     11.71214  eV     1   --> G_4            
     e(177 -177) =     11.76774  eV     1   --> G_4            
     e(178 -178) =     11.82081  eV     1   --> G_5            
     e(179 -179) =     12.57266  eV     1   --> G_4            
     e(180 -180) =     12.62635  eV     1   --> G_5            
     e(181 -181) =     12.67955  eV     1   --> G_4            
     e(182 -182) =     12.74567  eV     1   --> G_5            
     e(183 -183) =     12.82530  eV     1   --> G_6            
     e(184 -184) =     12.88936  eV     1   --> G_6            
     e(185 -185) =     13.28199  eV     1   --> G_5            
     e(186 -186) =     13.30962  eV     1   --> G_4            
     e(187 -187) =     13.32164  eV     1   --> G_5            
     e(188 -188) =     13.34362  eV     1   --> G_4            
     e(189 -189) =     13.36258  eV     1   --> G_6            
     e(190 -190) =     13.41255  eV     1   --> G_5            
     e(191 -191) =     13.41848  eV     1   --> G_6            
     e(192 -192) =     13.42755  eV     1   --> G_4            
     e(193 -193) =     13.58661  eV     1   --> G_4            
     e(194 -194) =     13.59891  eV     1   --> G_5            
     e(195 -195) =     13.74094  eV     1   --> G_6            
     e(196 -196) =     13.76464  eV     1   --> G_6            
     e(197 -197) =     13.80217  eV     1   --> G_4            
     e(198 -198) =     13.81401  eV     1   --> G_5            
     e(199 -199) =     13.91799  eV     1   --> G_5            
     e(200 -200) =     13.92092  eV     1   --> G_4            

 **************************************************************************

 **************************************************************************

                    xk=(   0.00000,   0.00000,   0.04017  )

     Band symmetry, D_3 (32)    [C_3 (3)    ] magnetic double point group,
     using C_3 (3)    

     e(  1 -  1) =    -75.03737  eV     1   --> G_5            
     e(  2 -  2) =    -74.95802  eV     1   --> G_4            
     e(  3 -  3) =    -70.24590  eV     1   --> G_4            
     e(  4 -  4) =    -70.16060  eV     1   --> G_5            
     e(  5 -  5) =    -44.13519  eV     1   --> G_4            
     e(  6 -  6) =    -44.05145  eV     1   --> G_5            
     e(  7 -  7) =    -43.72710  eV     1   --> G_5            
     e(  8 -  8) =    -43.65015  eV     1   --> G_4            
     e(  9 -  9) =    -43.22684  eV     1   --> G_6            
     e( 10 - 10) =    -43.14317  eV     1   --> G_6            
     e( 11 - 11) =    -39.17804  eV     1   --> G_5            
     e( 12 - 12) =    -39.09834  eV     1   --> G_4            
     e( 13 - 13) =    -38.77043  eV     1   --> G_4            
     e( 14 - 14) =    -38.68513  eV     1   --> G_5            
     e( 15 - 15) =    -38.42574  eV     1   --> G_6            
     e( 16 - 16) =    -38.34600  eV     1   --> G_6            
     e( 17 - 17) =    -17.01818  eV     1   --> G_4            
     e( 18 - 18) =    -17.01791  eV     1   --> G_4            
     e( 19 - 19) =    -16.98371  eV     1   --> G_6            
     e( 20 - 20) =    -16.98355  eV     1   --> G_6            
     e( 21 - 21) =    -16.95910  eV     1   --> G_6            
     e( 22 - 22) =    -16.95894  eV     1   --> G_6            
     e( 23 - 23) =    -16.93568  eV     1   --> G_5            
     e( 24 - 24) =    -16.93542  eV     1   --> G_5            
     e( 25 - 25) =    -16.93512  eV     1   --> G_6            
     e( 26 - 26) =    -16.93496  eV     1   --> G_6            
     e( 27 - 27) =    -16.92467  eV     1   --> G_6            
     e( 28 - 28) =    -16.92450  eV     1   --> G_6            
     e( 29 - 29) =    -16.91466  eV     1   --> G_5            
     e( 30 - 30) =    -16.91442  eV     1   --> G_5            
     e( 31 - 31) =    -16.91355  eV     1   --> G_4            
     e( 32 - 32) =    -16.91329  eV     1   --> G_4            
     e( 33 - 33) =    -13.99594  eV     1   --> G_4            
     e( 34 - 34) =    -13.99574  eV     1   --> G_4            
     e( 35 - 35) =    -13.99458  eV     1   --> G_5            
     e( 36 - 36) =    -13.99444  eV     1   --> G_5            
     e( 37 - 37) =    -13.99192  eV     1   --> G_6            
     e( 38 - 38) =    -13.99175  eV     1   --> G_6            
     e( 39 - 39) =    -13.98391  eV     1   --> G_5            
     e( 40 - 40) =    -13.98364  eV     1   --> G_5            
     e( 41 - 41) =    -13.97389  eV     1   --> G_6            
     e( 42 - 42) =    -13.97372  eV     1   --> G_6            
     e( 43 - 43) =    -13.97141  eV     1   --> G_4            
     e( 44 - 44) =    -13.97119  eV     1   --> G_4            
     e( 45 - 45) =    -13.95669  eV     1   --> G_5            
     e( 46 - 46) =    -13.95647  eV     1   --> G_5            
     e( 47 - 47) =    -13.95314  eV     1   --> G_4            
     e( 48 - 48) =    -13.95299  eV     1   --> G_4            
     e( 49 - 49) =    -13.94513  eV     1   --> G_6            
     e( 50 - 50) =    -13.94496  eV     1   --> G_6            
     e( 51 - 51) =    -13.93784  eV     1   --> G_6            
     e( 52 - 52) =    -13.93768  eV     1   --> G_6            
     e( 53 - 53) =    -13.93740  eV     1   --> G_5            
     e( 54 - 54) =    -13.93720  eV     1   --> G_5            
     e( 55 - 55) =    -13.93326  eV     1   --> G_4            
     e( 56 - 56) =    -13.93299  eV     1   --> G_4            
     e( 57 - 57) =     -5.48712  eV     1   --> G_5            
     e( 58 - 58) =     -5.48472  eV     1   --> G_4            
     e( 59 - 59) =     -5.45644  eV     1   --> G_5            
     e( 60 - 60) =     -5.45517  eV     1   --> G_4            
     e( 61 - 61) =     -5.27175  eV     1   --> G_4            
     e( 62 - 62) =     -5.26747  eV     1   --> G_5            
     e( 63 - 63) =     -5.22275  eV     1   --> G_4            
     e( 64 - 64) =     -5.21908  eV     1   --> G_5            
     e( 65 - 65) =     -3.82481  eV     1   --> G_5            
     e( 66 - 66) =     -3.81002  eV     1   --> G_4            
     e( 67 - 67) =     -3.61239  eV     1   --> G_4            
     e( 68 - 68) =     -3.59621  eV     1   --> G_5            
     e( 69 - 69) =     -3.32884  eV     1   --> G_5            
     e( 70 - 70) =     -3.32676  eV     1   --> G_4            
     e( 71 - 71) =     -3.05646  eV     1   --> G_4            
     e( 72 - 72) =     -3.05359  eV     1   --> G_5            
     e( 73 - 73) =     -1.46802  eV     1   --> G_5            
     e( 74 - 74) =     -1.46458  eV     1   --> G_4            
     e( 75 - 75) =     -1.11922  eV     1   --> G_5            
     e( 76 - 76) =     -1.11759  eV     1   --> G_4            
     e( 77 - 77) =     -0.79079  eV     1   --> G_4            
     e( 78 - 78) =     -0.78787  eV     1   --> G_5            
     e( 79 - 79) =     -0.50135  eV     1   --> G_4            
     e( 80 - 80) =     -0.50056  eV     1   --> G_5            
     e( 81 - 81) =      1.81059  eV     1   --> G_6            
     e( 82 - 82) =      1.83986  eV     1   --> G_4            
     e( 83 - 83) =      1.89003  eV     1   --> G_5            
     e( 84 - 84) =      1.89128  eV     1   --> G_6            
     e( 85 - 85) =      1.92036  eV     1   --> G_5            
     e( 86 - 86) =      1.96597  eV     1   --> G_4            
     e( 87 - 87) =      2.08337  eV     1   --> G_4            
     e( 88 - 88) =      2.10158  eV     1   --> G_6            
     e( 89 - 89) =      2.16442  eV     1   --> G_5            
     e( 90 - 90) =      2.18259  eV     1   --> G_6            
     e( 91 - 91) =      3.99341  eV     1   --> G_4            
     e( 92 - 92) =      4.00130  eV     1   --> G_5            
     e( 93 - 93) =      4.26384  eV     1   --> G_5            
     e( 94 - 94) =      4.27734  eV     1   --> G_4            
     e( 95 - 95) =      4.68052  eV     1   --> G_4            
     e( 96 - 96) =      4.69197  eV     1   --> G_5            
     e( 97 - 97) =      5.19096  eV     1   --> G_4            
     e( 98 - 98) =      5.19380  eV     1   --> G_5            
     e( 99 - 99) =      5.24024  eV     1   --> G_4            
     e(100 -100) =      5.24845  eV     1   --> G_5            
     e(101 -101) =      5.50003  eV     1   --> G_5            
     e(102 -102) =      5.50323  eV     1   --> G_4            
     e(103 -103) =      5.73552  eV     1   --> G_5            
     e(104 -104) =      5.74837  eV     1   --> G_4            
     e(105 -105) =      5.76269  eV     1   --> G_5            
     e(106 -106) =      5.77306  eV     1   --> G_4            
     e(107 -107) =      6.13606  eV     1   --> G_5            
     e(108 -108) =      6.18876  eV     1   --> G_4            
     e(109 -109) =      6.22508  eV     1   --> G_4            
     e(110 -110) =      6.23313  eV     1   --> G_5            
     e(111 -111) =      6.28971  eV     1   --> G_6            
     e(112 -112) =      6.31891  eV     1   --> G_6            
     e(113 -113) =      6.35455  eV     1   --> G_6            
     e(114 -114) =      6.36099  eV     1   --> G_6            
     e(115 -115) =      6.37251  eV     1   --> G_5            
     e(116 -116) =      6.37445  eV     1   --> G_4            
     e(117 -117) =      6.45269  eV     1   --> G_6            
     e(118 -118) =      6.47034  eV     1   --> G_6            
     e(119 -119) =      6.62899  eV     1   --> G_6            
     e(120 -120) =      6.63106  eV     1   --> G_6            
     e(121 -121) =      6.73640  eV     1   --> G_6            
     e(122 -122) =      6.75580  eV     1   --> G_6            
     e(123 -123) =      6.84716  eV     1   --> G_4            
     e(124 -124) =      6.85402  eV     1   --> G_5            
     e(125 -125) =      6.90426  eV     1   --> G_4            
     e(126 -126) =      6.95521  eV     1   --> G_5            
     e(127 -127) =      7.01303  eV     1   --> G_5            
     e(128 -128) =      7.01841  eV     1   --> G_4            
     e(129 -129) =      7.21890  eV     1   --> G_6            
     e(130 -130) =      7.24700  eV     1   --> G_6            
     e(131 -131) =      7.31837  eV     1   --> G_6            
     e(132 -132) =      7.34459  eV     1   --> G_6            
     e(133 -133) =      7.51145  eV     1   --> G_6            
     e(134 -134) =      7.55983  eV     1   --> G_5            
     e(135 -135) =      7.57342  eV     1   --> G_6            
     e(136 -136) =      7.57884  eV     1   --> G_4            
     e(137 -137) =      7.63373  eV     1   --> G_4            
     e(138 -138) =      7.64427  eV     1   --> G_5            
     e(139 -139) =      7.86337  eV     1   --> G_4            
     e(140 -140) =      7.86429  eV     1   --> G_5            
     e(141 -141) =      7.87166  eV     1   --> G_4            
     e(142 -142) =      7.87627  eV     1   --> G_5            
     e(143 -143) =      7.99203  eV     1   --> G_4            
     e(144 -144) =      8.01368  eV     1   --> G_5            
     e(145 -145) =      8.18208  eV     1   --> G_5            
     e(146 -146) =      8.18462  eV     1   --> G_4            
     e(147 -147) =      8.96610  eV     1   --> G_5            
     e(148 -148) =      8.99455  eV     1   --> G_4            
     e(149 -149) =      9.29897  eV     1   --> G_4            
     e(150 -150) =      9.32624  eV     1   --> G_5            
     e(151 -151) =      9.33245  eV     1   --> G_6            
     e(152 -152) =      9.36699  eV     1   --> G_6            
     e(153 -153) =      9.41867  eV     1   --> G_5            
     e(154 -154) =      9.43278  eV     1   --> G_4            
     e(155 -155) =      9.47261  eV     1   --> G_6            
     e(156 -156) =      9.48123  eV     1   --> G_6            
     e(157 -157) =      9.61056  eV     1   --> G_4            
     e(158 -158) =      9.62152  eV     1   --> G_5            
     e(159 -159) =      9.85988  eV     1   --> G_6            
     e(160 -160) =      9.86467  eV     1   --> G_6            
     e(161 -161) =      9.89933  eV     1   --> G_6            
     e(162 -162) =      9.91952  eV     1   --> G_6            
     e(163 -163) =     10.05330  eV     1   --> G_5            
     e(164 -164) =     10.12939  eV     1   --> G_4            
     e(165 -165) =     10.13038  eV     1   --> G_6            
     e(166 -166) =     10.15300  eV     1   --> G_4            
     e(167 -167) =     10.20301  eV     1   --> G_6            
     e(168 -168) =     10.22253  eV     1   --> G_5            
     e(169 -169) =     10.70242  eV     1   --> G_5            
     e(170 -170) =     10.77758  eV     1   --> G_4            
     e(171 -171) =     10.94292  eV     1   --> G_6            
     e(172 -172) =     11.00908  eV     1   --> G_6            
     e(173 -173) =     11.44957  eV     1   --> G_5            
     e(174 -174) =     11.50610  eV     1   --> G_4            
     e(175 -175) =     11.65493  eV     1   --> G_5            
     e(176 -176) =     11.71179  eV     1   --> G_4            
     e(177 -177) =     11.76800  eV     1   --> G_4            
     e(178 -178) =     11.82085  eV     1   --> G_5            
     e(179 -179) =     12.57283  eV     1   --> G_4            
     e(180 -180) =     12.62654  eV     1   --> G_5            
     e(181 -181) =     12.67953  eV     1   --> G_4            
     e(182 -182) =     12.74566  eV     1   --> G_5            
     e(183 -183) =     12.82531  eV     1   --> G_6            
     e(184 -184) =     12.88937  eV     1   --> G_6            
     e(185 -185) =     13.28178  eV     1   --> G_5            
     e(186 -186) =     13.30934  eV     1   --> G_4            
     e(187 -187) =     13.32139  eV     1   --> G_5            
     e(188 -188) =     13.34358  eV     1   --> G_4            
     e(189 -189) =     13.36254  eV     1   --> G_6            
     e(190 -190) =     13.41220  eV     1   --> G_5            
     e(191 -191) =     13.41840  eV     1   --> G_6            
     e(192 -192) =     13.42689  eV     1   --> G_4            
     e(193 -193) =     13.58742  eV     1   --> G_4            
     e(194 -194) =     13.59955  eV     1   --> G_5            
     e(195 -195) =     13.74144  eV     1   --> G_6            
     e(196 -196) =     13.76511  eV     1   --> G_6            
     e(197 -197) =     13.80248  eV     1   --> G_4            
     e(198 -198) =     13.81433  eV     1   --> G_5            
     e(199 -199) =     13.91688  eV     1   --> G_5            
     e(200 -200) =     13.91917  eV     1   --> G_4            

 **************************************************************************

 **************************************************************************

                    xk=(   0.00000,   0.00000,   0.05021  )

     Band symmetry, D_3 (32)    [C_3 (3)    ] magnetic double point group,
     using C_3 (3)    

     e(  1 -  1) =    -75.03737  eV     1   --> G_5            
     e(  2 -  2) =    -74.95802  eV     1   --> G_4            
     e(  3 -  3) =    -70.24590  eV     1   --> G_4            
     e(  4 -  4) =    -70.16060  eV     1   --> G_5            
     e(  5 -  5) =    -44.13519  eV     1   --> G_4            
     e(  6 -  6) =    -44.05145  eV     1   --> G_5            
     e(  7 -  7) =    -43.72710  eV     1   --> G_5            
     e(  8 -  8) =    -43.65015  eV     1   --> G_4            
     e(  9 -  9) =    -43.22684  eV     1   --> G_6            
     e( 10 - 10) =    -43.14317  eV     1   --> G_6            
     e( 11 - 11) =    -39.17804  eV     1   --> G_5            
     e( 12 - 12) =    -39.09834  eV     1   --> G_4            
     e( 13 - 13) =    -38.77043  eV     1   --> G_4            
     e( 14 - 14) =    -38.68513  eV     1   --> G_5            
     e( 15 - 15) =    -38.42574  eV     1   --> G_6            
     e( 16 - 16) =    -38.34600  eV     1   --> G_6            
     e( 17 - 17) =    -17.01818  eV     1   --> G_4            
     e( 18 - 18) =    -17.01791  eV     1   --> G_4            
     e( 19 - 19) =    -16.98371  eV     1   --> G_6            
     e( 20 - 20) =    -16.98355  eV     1   --> G_6            
     e( 21 - 21) =    -16.95910  eV     1   --> G_6            
     e( 22 - 22) =    -16.95894  eV     1   --> G_6            
     e( 23 - 23) =    -16.93568  eV     1   --> G_5            
     e( 24 - 24) =    -16.93542  eV     1   --> G_5            
     e( 25 - 25) =    -16.93512  eV     1   --> G_6            
     e( 26 - 26) =    -16.93496  eV     1   --> G_6            
     e( 27 - 27) =    -16.92467  eV     1   --> G_6            
     e( 28 - 28) =    -16.92450  eV     1   --> G_6            
     e( 29 - 29) =    -16.91466  eV     1   --> G_5            
     e( 30 - 30) =    -16.91442  eV     1   --> G_5            
     e( 31 - 31) =    -16.91355  eV     1   --> G_4            
     e( 32 - 32) =    -16.91329  eV     1   --> G_4            
     e( 33 - 33) =    -13.99594  eV     1   --> G_4            
     e( 34 - 34) =    -13.99574  eV     1   --> G_4            
     e( 35 - 35) =    -13.99458  eV     1   --> G_5            
     e( 36 - 36) =    -13.99444  eV     1   --> G_5            
     e( 37 - 37) =    -13.99192  eV     1   --> G_6            
     e( 38 - 38) =    -13.99175  eV     1   --> G_6            
     e( 39 - 39) =    -13.98391  eV     1   --> G_5            
     e( 40 - 40) =    -13.98364  eV     1   --> G_5            
     e( 41 - 41) =    -13.97389  eV     1   --> G_6            
     e( 42 - 42) =    -13.97372  eV     1   --> G_6            
     e( 43 - 43) =    -13.97141  eV     1   --> G_4            
     e( 44 - 44) =    -13.97119  eV     1   --> G_4            
     e( 45 - 45) =    -13.95669  eV     1   --> G_5            
     e( 46 - 46) =    -13.95647  eV     1   --> G_5            
     e( 47 - 47) =    -13.95314  eV     1   --> G_4            
     e( 48 - 48) =    -13.95299  eV     1   --> G_4            
     e( 49 - 49) =    -13.94513  eV     1   --> G_6            
     e( 50 - 50) =    -13.94496  eV     1   --> G_6            
     e( 51 - 51) =    -13.93784  eV     1   --> G_6            
     e( 52 - 52) =    -13.93768  eV     1   --> G_6            
     e( 53 - 53) =    -13.93740  eV     1   --> G_5            
     e( 54 - 54) =    -13.93720  eV     1   --> G_5            
     e( 55 - 55) =    -13.93326  eV     1   --> G_4            
     e( 56 - 56) =    -13.93299  eV     1   --> G_4            
     e( 57 - 57) =     -5.48708  eV     1   --> G_5            
     e( 58 - 58) =     -5.48467  eV     1   --> G_4            
     e( 59 - 59) =     -5.45651  eV     1   --> G_5            
     e( 60 - 60) =     -5.45525  eV     1   --> G_4            
     e( 61 - 61) =     -5.27163  eV     1   --> G_4            
     e( 62 - 62) =     -5.26735  eV     1   --> G_5            
     e( 63 - 63) =     -5.22285  eV     1   --> G_4            
     e( 64 - 64) =     -5.21918  eV     1   --> G_5            
     e( 65 - 65) =     -3.82456  eV     1   --> G_5            
     e( 66 - 66) =     -3.80972  eV     1   --> G_4            
     e( 67 - 67) =     -3.61318  eV     1   --> G_4            
     e( 68 - 68) =     -3.59697  eV     1   --> G_5            
     e( 69 - 69) =     -3.32790  eV     1   --> G_5            
     e( 70 - 70) =     -3.32584  eV     1   --> G_4            
     e( 71 - 71) =     -3.05693  eV     1   --> G_4            
     e( 72 - 72) =     -3.05406  eV     1   --> G_5            
     e( 73 - 73) =     -1.46744  eV     1   --> G_5            
     e( 74 - 74) =     -1.46400  eV     1   --> G_4            
     e( 75 - 75) =     -1.12054  eV     1   --> G_5            
     e( 76 - 76) =     -1.11894  eV     1   --> G_4            
     e( 77 - 77) =     -0.78955  eV     1   --> G_4            
     e( 78 - 78) =     -0.78664  eV     1   --> G_5            
     e( 79 - 79) =     -0.50178  eV     1   --> G_4            
     e( 80 - 80) =     -0.50099  eV     1   --> G_5            
     e( 81 - 81) =      1.81059  eV     1   --> G_6            
     e( 82 - 82) =      1.83986  eV     1   --> G_4            
     e( 83 - 83) =      1.89003  eV     1   --> G_5            
     e( 84 - 84) =      1.89128  eV     1   --> G_6            
     e( 85 - 85) =      1.92036  eV     1   --> G_5            
     e( 86 - 86) =      1.96597  eV     1   --> G_4            
     e( 87 - 87) =      2.08337  eV     1   --> G_4            
     e( 88 - 88) =      2.10158  eV     1   --> G_6            
     e( 89 - 89) =      2.16442  eV     1   --> G_5            
     e( 90 - 90) =      2.18259  eV     1   --> G_6            
     e( 91 - 91) =      3.99378  eV     1   --> G_4            
     e( 92 - 92) =      4.00171  eV     1   --> G_5            
     e( 93 - 93) =      4.26283  eV     1   --> G_5            
     e( 94 - 94) =      4.27633  eV     1   --> G_4            
     e( 95 - 95) =      4.68180  eV     1   --> G_4            
     e( 96 - 96) =      4.69320  eV     1   --> G_5            
     e( 97 - 97) =      5.18593  eV     1   --> G_4            
     e( 98 - 98) =      5.18927  eV     1   --> G_5            
     e( 99 - 99) =      5.24490  eV     1   --> G_4            
     e(100 -100) =      5.25258  eV     1   --> G_5            
     e(101 -101) =      5.49979  eV     1   --> G_5            
     e(102 -102) =      5.50295  eV     1   --> G_4            
     e(103 -103) =      5.73544  eV     1   --> G_5            
     e(104 -104) =      5.74824  eV     1   --> G_4            
     e(105 -105) =      5.76284  eV     1   --> G_5            
     e(106 -106) =      5.77325  eV     1   --> G_4            
     e(107 -107) =      6.13563  eV     1   --> G_5            
     e(108 -108) =      6.18774  eV     1   --> G_4            
     e(109 -109) =      6.22621  eV     1   --> G_4            
     e(110 -110) =      6.23360  eV     1   --> G_5            
     e(111 -111) =      6.28971  eV     1   --> G_6            
     e(112 -112) =      6.31890  eV     1   --> G_6            
     e(113 -113) =      6.35458  eV     1   --> G_6            
     e(114 -114) =      6.36099  eV     1   --> G_6            
     e(115 -115) =      6.37235  eV     1   --> G_5            
     e(116 -116) =      6.37422  eV     1   --> G_4            
     e(117 -117) =      6.45267  eV     1   --> G_6            
     e(118 -118) =      6.47032  eV     1   --> G_6            
     e(119 -119) =      6.62903  eV     1   --> G_6            
     e(120 -120) =      6.63111  eV     1   --> G_6            
     e(121 -121) =      6.73636  eV     1   --> G_6            
     e(122 -122) =      6.75575  eV     1   --> G_6            
     e(123 -123) =      6.84741  eV     1   --> G_4            
[...]
     e(109 -109) =      4.57367  eV     1   --> G_2            
     e(110 -110) =      4.58416  eV     1   --> G_2            
     e(111 -111) =      4.73272  eV     1   --> G_2            
     e(112 -112) =      4.74018  eV     1   --> G_2            
     e(113 -113) =      4.76082  eV     1   --> G_2            
     e(114 -114) =      4.76996  eV     1   --> G_2            
     e(115 -115) =      4.87859  eV     1   --> G_2            
     e(116 -116) =      4.88819  eV     1   --> G_2            
     e(117 -117) =      4.96378  eV     1   --> G_2            
     e(118 -118) =      4.98174  eV     1   --> G_2            
     e(119 -119) =      5.38506  eV     1   --> G_2            
     e(120 -120) =      5.39175  eV     1   --> G_2            
     e(121 -121) =      5.45456  eV     1   --> G_2            
     e(122 -122) =      5.46266  eV     1   --> G_2            
     e(123 -123) =      5.87560  eV     1   --> G_2            
     e(124 -124) =      5.89820  eV     1   --> G_2            
     e(125 -125) =      5.90809  eV     1   --> G_2            
     e(126 -126) =      5.92416  eV     1   --> G_2            
     e(127 -127) =      6.09581  eV     1   --> G_2            
     e(128 -128) =      6.11654  eV     1   --> G_2            
     e(129 -129) =      6.32021  eV     1   --> G_2            
     e(130 -130) =      6.33975  eV     1   --> G_2            
     e(131 -131) =      6.41454  eV     1   --> G_2            
     e(132 -132) =      6.43262  eV     1   --> G_2            
     e(133 -133) =      6.70618  eV     1   --> G_2            
     e(134 -134) =      6.70721  eV     1   --> G_2            
     e(135 -135) =      7.04385  eV     1   --> G_2            
     e(136 -136) =      7.06707  eV     1   --> G_2            
     e(137 -137) =      7.16735  eV     1   --> G_2            
     e(138 -138) =      7.21315  eV     1   --> G_2            
     e(139 -139) =      8.22899  eV     1   --> G_2            
     e(140 -140) =      8.24544  eV     1   --> G_2            
     e(141 -141) =      8.40746  eV     1   --> G_2            
     e(142 -142) =      8.42099  eV     1   --> G_2            
     e(143 -143) =      8.83561  eV     1   --> G_2            
     e(144 -144) =      8.85074  eV     1   --> G_2            
     e(145 -145) =      8.91616  eV     1   --> G_2            
     e(146 -146) =      8.92154  eV     1   --> G_2            
     e(147 -147) =      9.29992  eV     1   --> G_2            
     e(148 -148) =      9.32301  eV     1   --> G_2            
     e(149 -149) =      9.51321  eV     1   --> G_2            
     e(150 -150) =      9.53351  eV     1   --> G_2            
     e(151 -151) =      9.66674  eV     1   --> G_2            
     e(152 -152) =      9.69970  eV     1   --> G_2            
     e(153 -153) =      9.74065  eV     1   --> G_2            
     e(154 -154) =      9.75930  eV     1   --> G_2            
     e(155 -155) =      9.81662  eV     1   --> G_2            
     e(156 -156) =      9.83319  eV     1   --> G_2            
     e(157 -157) =     10.09566  eV     1   --> G_2            
     e(158 -158) =     10.09758  eV     1   --> G_2            
     e(159 -159) =     10.25532  eV     1   --> G_2            
     e(160 -160) =     10.29419  eV     1   --> G_2            
     e(161 -161) =     10.44607  eV     1   --> G_2            
     e(162 -162) =     10.49118  eV     1   --> G_2            
     e(163 -163) =     10.52952  eV     1   --> G_2            
     e(164 -164) =     10.56191  eV     1   --> G_2            
     e(165 -165) =     10.61403  eV     1   --> G_2            
     e(166 -166) =     10.67037  eV     1   --> G_2            
     e(167 -167) =     10.68392  eV     1   --> G_2            
     e(168 -168) =     10.71346  eV     1   --> G_2            
     e(169 -169) =     11.13222  eV     1   --> G_2            
     e(170 -170) =     11.18763  eV     1   --> G_2            
     e(171 -171) =     11.30409  eV     1   --> G_2            
     e(172 -172) =     11.32227  eV     1   --> G_2            
     e(173 -173) =     11.51756  eV     1   --> G_2            
     e(174 -174) =     11.55633  eV     1   --> G_2            
     e(175 -175) =     11.69867  eV     1   --> G_2            
     e(176 -176) =     11.71098  eV     1   --> G_2            
     e(177 -177) =     11.73755  eV     1   --> G_2            
     e(178 -178) =     11.75782  eV     1   --> G_2            
     e(179 -179) =     12.09825  eV     1   --> G_2            
     e(180 -180) =     12.13610  eV     1   --> G_2            
     e(181 -181) =     12.50659  eV     1   --> G_2            
     e(182 -182) =     12.55394  eV     1   --> G_2            
     e(183 -183) =     13.13233  eV     1   --> G_2            
     e(184 -184) =     13.17842  eV     1   --> G_2            
     e(185 -185) =     13.58855  eV     1   --> G_2            
     e(186 -186) =     13.59448  eV     1   --> G_2            
     e(187 -187) =     13.77351  eV     1   --> G_2            
     e(188 -188) =     13.77785  eV     1   --> G_2            
     e(189 -189) =     14.25686  eV     1   --> G_2            
     e(190 -190) =     14.30506  eV     1   --> G_2            
     e(191 -191) =     14.45354  eV     1   --> G_2            
     e(192 -192) =     14.48603  eV     1   --> G_2            
     e(193 -193) =     14.70652  eV     1   --> G_2            
     e(194 -194) =     14.74791  eV     1   --> G_2            
     e(195 -195) =     14.89345  eV     1   --> G_2            
     e(196 -196) =     14.94771  eV     1   --> G_2            
     e(197 -197) =     15.55525  eV     1   --> G_2            
     e(198 -198) =     15.59844  eV     1   --> G_2            
     e(199 -199) =     15.73188  eV     1   --> G_2            
     e(200 -200) =     15.74527  eV     1   --> G_2            

 **************************************************************************

 **************************************************************************

                    xk=(   3.16117,  -1.82510,   0.16737  )

     the magnetic double point group is C_2h (2/m)  [C_i (-1)   ]
     using the double point group C_i (-1)   
     there are  4 classes and  2 irreducible representations
     the character table:

       E     -E    i     -i   
                              
G_2+   1.00 -1.00  1.00 -1.00
G_2-   1.00 -1.00 -1.00  1.00

     the symmetry operations in each class and the name of the first element:

     E             1
                                                                 
     -E           -1
                                                                 
     i             2
                                                                 
     -i           -2
                                                                 

     Band symmetry, C_2h (2/m)  [C_i (-1)   ] magnetic double point group,
     using C_i (-1)   

     e(  1 -  1) =    -75.03736  eV     1   --> G_2+           
     e(  2 -  2) =    -74.95801  eV     1   --> G_2-           
     e(  3 -  3) =    -70.24588  eV     1   --> G_2+           
     e(  4 -  4) =    -70.16058  eV     1   --> G_2-           
     e(  5 -  5) =    -44.13548  eV     1   --> G_2-           
     e(  6 -  6) =    -44.05174  eV     1   --> G_2+           
     e(  7 -  7) =    -43.72701  eV     1   --> G_2-           
     e(  8 -  8) =    -43.65007  eV     1   --> G_2+           
     e(  9 -  9) =    -43.22718  eV     1   --> G_2-           
     e( 10 - 10) =    -43.14351  eV     1   --> G_2+           
     e( 11 - 11) =    -39.17851  eV     1   --> G_2-           
     e( 12 - 12) =    -39.09881  eV     1   --> G_2+           
     e( 13 - 13) =    -38.77029  eV     1   --> G_2-           
     e( 14 - 14) =    -38.68499  eV     1   --> G_2+           
     e( 15 - 15) =    -38.42628  eV     1   --> G_2-           
     e( 16 - 16) =    -38.34654  eV     1   --> G_2+           
     e( 17 - 18) =    -17.01855  eV     2   --> G_2+           
     e( 17 - 18) =    -17.01855  eV     2   --> G_2-           
     e( 19 - 20) =    -16.98044  eV     2   --> G_2+           
     e( 19 - 20) =    -16.98044  eV     2   --> G_2-           
     e( 21 - 22) =    -16.95591  eV     2   --> G_2+           
     e( 21 - 22) =    -16.95591  eV     2   --> G_2-           
     e( 23 - 24) =    -16.93651  eV     2   --> G_2+           
     e( 23 - 24) =    -16.93651  eV     2   --> G_2-           
     e( 25 - 26) =    -16.93150  eV     2   --> G_2+           
     e( 25 - 26) =    -16.93150  eV     2   --> G_2-           
     e( 27 - 28) =    -16.92169  eV     2   --> G_2+           
     e( 27 - 28) =    -16.92169  eV     2   --> G_2-           
     e( 29 - 30) =    -16.91523  eV     2   --> G_2+           
     e( 29 - 30) =    -16.91523  eV     2   --> G_2-           
     e( 31 - 32) =    -16.91382  eV     2   --> G_2+           
     e( 31 - 32) =    -16.91382  eV     2   --> G_2-           
     e( 33 - 34) =    -14.00163  eV     2   --> G_2+           
     e( 33 - 34) =    -14.00163  eV     2   --> G_2-           
     e( 35 - 36) =    -13.99448  eV     2   --> G_2+           
     e( 35 - 36) =    -13.99448  eV     2   --> G_2-           
     e( 37 - 38) =    -13.98645  eV     2   --> G_2+           
     e( 37 - 38) =    -13.98645  eV     2   --> G_2-           
     e( 39 - 40) =    -13.97868  eV     2   -->   ?
     e( 41 - 42) =    -13.97772  eV     2   -->   ?
     e( 43 - 44) =    -13.96352  eV     2   --> G_2+           
     e( 43 - 44) =    -13.96352  eV     2   --> G_2-           
     e( 45 - 46) =    -13.95809  eV     2   --> G_2+           
     e( 45 - 46) =    -13.95809  eV     2   --> G_2-           
     e( 47 - 48) =    -13.95364  eV     2   --> G_2+           
     e( 47 - 48) =    -13.95364  eV     2   --> G_2-           
     e( 49 - 50) =    -13.94564  eV     2   --> G_2+           
     e( 49 - 50) =    -13.94564  eV     2   --> G_2-           
     e( 51 - 52) =    -13.94010  eV     2   --> G_2+           
     e( 51 - 52) =    -13.94010  eV     2   --> G_2-           
     e( 53 - 54) =    -13.93096  eV     2   --> G_2+           
     e( 53 - 54) =    -13.93096  eV     2   --> G_2-           
     e( 55 - 56) =    -13.92591  eV     2   --> G_2+           
     e( 55 - 56) =    -13.92591  eV     2   --> G_2-           
     e( 57 - 57) =     -3.83416  eV     1   --> G_2-           
     e( 58 - 58) =     -3.82985  eV     1   --> G_2+           
     e( 59 - 59) =     -3.82418  eV     1   --> G_2-           
     e( 60 - 60) =     -3.82087  eV     1   --> G_2+           
     e( 61 - 61) =     -3.78151  eV     1   --> G_2-           
     e( 62 - 62) =     -3.77982  eV     1   --> G_2+           
     e( 63 - 63) =     -3.77115  eV     1   --> G_2+           
     e( 64 - 64) =     -3.76390  eV     1   --> G_2-           
     e( 65 - 65) =     -3.18255  eV     1   --> G_2-           
     e( 66 - 66) =     -3.18147  eV     1   --> G_2-           
     e( 67 - 67) =     -3.17362  eV     1   --> G_2+           
     e( 68 - 68) =     -3.14308  eV     1   --> G_2+           
     e( 69 - 69) =     -3.07063  eV     1   --> G_2+           
     e( 70 - 70) =     -3.06179  eV     1   --> G_2-           
     e( 71 - 71) =     -3.01321  eV     1   --> G_2+           
     e( 72 - 72) =     -2.97680  eV     1   --> G_2-           
     e( 73 - 73) =     -2.38268  eV     1   --> G_2+           
     e( 74 - 74) =     -2.37293  eV     1   --> G_2-           
     e( 75 - 75) =     -2.33988  eV     1   --> G_2-           
     e( 76 - 76) =     -2.33286  eV     1   --> G_2+           
     e( 77 - 77) =     -2.18372  eV     1   --> G_2-           
     e( 78 - 78) =     -2.17374  eV     1   --> G_2+           
     e( 79 - 79) =     -2.15397  eV     1   --> G_2+           
     e( 80 - 80) =     -2.14248  eV     1   --> G_2-           
     e( 81 - 81) =      1.74967  eV     1   --> G_2+           
     e( 82 - 82) =      1.82676  eV     1   --> G_2-           
     e( 83 - 83) =      1.90268  eV     1   --> G_2+           
     e( 84 - 84) =      1.95886  eV     1   --> G_2+           
     e( 85 - 85) =      1.98296  eV     1   --> G_2-           
     e( 86 - 86) =      2.03427  eV     1   --> G_2-           
     e( 87 - 87) =      2.17897  eV     1   --> G_2+           
     e( 88 - 88) =      2.25975  eV     1   --> G_2-           
     e( 89 - 89) =      2.27637  eV     1   --> G_2+           
     e( 90 - 90) =      2.35333  eV     1   --> G_2-           
     e( 91 - 91) =      2.58794  eV     1   --> G_2-           
     e( 92 - 92) =      2.59890  eV     1   --> G_2+           
     e( 93 - 93) =      2.69458  eV     1   --> G_2-           
     e( 94 - 94) =      2.71464  eV     1   --> G_2+           
     e( 95 - 95) =      2.97606  eV     1   --> G_2+           
     e( 96 - 96) =      2.98966  eV     1   --> G_2-           
     e( 97 - 97) =      3.11954  eV     1   --> G_2+           
     e( 98 - 98) =      3.15554  eV     1   --> G_2-           
     e( 99 - 99) =      3.60536  eV     1   --> G_2+           
     e(100 -100) =      3.63375  eV     1   --> G_2-           
     e(101 -101) =      3.69875  eV     1   --> G_2+           
     e(102 -102) =      3.71786  eV     1   --> G_2-           
     e(103 -103) =      4.04021  eV     1   --> G_2-           
     e(104 -104) =      4.05419  eV     1   --> G_2+           
     e(105 -105) =      4.06241  eV     1   --> G_2-           
     e(106 -106) =      4.07744  eV     1   --> G_2+           
     e(107 -107) =      4.55289  eV     1   --> G_2+           
     e(108 -108) =      4.56480  eV     1   --> G_2-           
     e(109 -109) =      4.57065  eV     1   --> G_2+           
     e(110 -110) =      4.58293  eV     1   --> G_2-           
     e(111 -111) =      4.73516  eV     1   --> G_2-           
     e(112 -112) =      4.74790  eV     1   --> G_2+           
     e(113 -113) =      4.75111  eV     1   --> G_2-           
     e(114 -114) =      4.76606  eV     1   --> G_2+           
     e(115 -115) =      4.88887  eV     1   --> G_2-           
     e(116 -116) =      4.90600  eV     1   --> G_2+           
     e(117 -117) =      4.94020  eV     1   --> G_2-           
     e(118 -118) =      4.96636  eV     1   --> G_2+           
     e(119 -119) =      5.38775  eV     1   --> G_2-           
     e(120 -120) =      5.39545  eV     1   --> G_2+           
     e(121 -121) =      5.44857  eV     1   --> G_2-           
     e(122 -122) =      5.45771  eV     1   --> G_2+           
     e(123 -123) =      5.87485  eV     1   --> G_2-           
     e(124 -124) =      5.89898  eV     1   --> G_2-           
     e(125 -125) =      5.90698  eV     1   --> G_2+           
     e(126 -126) =      5.92342  eV     1   --> G_2+           
     e(127 -127) =      6.09723  eV     1   --> G_2-           
     e(128 -128) =      6.11768  eV     1   --> G_2+           
     e(129 -129) =      6.31986  eV     1   --> G_2+           
     e(130 -130) =      6.33982  eV     1   --> G_2-           
     e(131 -131) =      6.41497  eV     1   --> G_2+           
     e(132 -132) =      6.43256  eV     1   --> G_2-           
     e(133 -133) =      6.70417  eV     1   --> G_2-           
     e(134 -134) =      6.70531  eV     1   --> G_2+           
     e(135 -135) =      7.04349  eV     1   --> G_2+           
     e(136 -136) =      7.06704  eV     1   --> G_2-           
     e(137 -137) =      7.16633  eV     1   --> G_2+           
     e(138 -138) =      7.21245  eV     1   --> G_2-           
     e(139 -139) =      8.22873  eV     1   --> G_2+           
     e(140 -140) =      8.24538  eV     1   --> G_2-           
     e(141 -141) =      8.40578  eV     1   --> G_2+           
     e(142 -142) =      8.41956  eV     1   --> G_2-           
     e(143 -143) =      8.83658  eV     1   --> G_2-           
     e(144 -144) =      8.85201  eV     1   --> G_2+           
     e(145 -145) =      8.91402  eV     1   --> G_2-           
     e(146 -146) =      8.91969  eV     1   --> G_2+           
     e(147 -147) =      9.29893  eV     1   --> G_2+           
     e(148 -148) =      9.32208  eV     1   --> G_2-           
     e(149 -149) =      9.51290  eV     1   --> G_2+           
     e(150 -150) =      9.53339  eV     1   --> G_2-           
     e(151 -151) =      9.66838  eV     1   --> G_2+           
     e(152 -152) =      9.70350  eV     1   --> G_2-           
     e(153 -153) =      9.73918  eV     1   --> G_2+           
     e(154 -154) =      9.75891  eV     1   --> G_2-           
     e(155 -155) =      9.81610  eV     1   --> G_2-           
     e(156 -156) =      9.83255  eV     1   --> G_2+           
     e(157 -157) =     10.09615  eV     1   --> G_2-           
     e(158 -158) =     10.09712  eV     1   --> G_2+           
     e(159 -159) =     10.25341  eV     1   --> G_2+           
     e(160 -160) =     10.29268  eV     1   --> G_2-           
     e(161 -161) =     10.44629  eV     1   --> G_2+           
     e(162 -162) =     10.49265  eV     1   --> G_2-           
     e(163 -163) =     10.52655  eV     1   --> G_2+           
     e(164 -164) =     10.56141  eV     1   --> G_2-           
     e(165 -165) =     10.61328  eV     1   --> G_2+           
     e(166 -166) =     10.67043  eV     1   --> G_2-           
     e(167 -167) =     10.68208  eV     1   --> G_2+           
     e(168 -168) =     10.71222  eV     1   --> G_2-           
     e(169 -169) =     11.13265  eV     1   --> G_2+           
     e(170 -170) =     11.18807  eV     1   --> G_2-           
     e(171 -171) =     11.30676  eV     1   --> G_2+           
     e(172 -172) =     11.32523  eV     1   --> G_2-           
     e(173 -173) =     11.51633  eV     1   --> G_2+           
     e(174 -174) =     11.55568  eV     1   --> G_2-           
     e(175 -175) =     11.70750  eV     1   --> G_2-           
     e(176 -176) =     11.71185  eV     1   --> G_2+           
     e(177 -177) =     11.73040  eV     1   --> G_2-           
     e(178 -178) =     11.75108  eV     1   --> G_2+           
     e(179 -179) =     12.09814  eV     1   --> G_2+           
     e(180 -180) =     12.13604  eV     1   --> G_2-           
     e(181 -181) =     12.50680  eV     1   --> G_2+           
     e(182 -182) =     12.55431  eV     1   --> G_2-           
     e(183 -183) =     13.13144  eV     1   --> G_2+           
     e(184 -184) =     13.17766  eV     1   --> G_2-           
     e(185 -185) =     13.59066  eV     1   --> G_2+           
     e(186 -186) =     13.59588  eV     1   --> G_2-           
     e(187 -187) =     13.77341  eV     1   --> G_2+           
     e(188 -188) =     13.77391  eV     1   --> G_2-           
     e(189 -189) =     14.25829  eV     1   --> G_2-           
     e(190 -190) =     14.30750  eV     1   --> G_2+           
     e(191 -191) =     14.45175  eV     1   --> G_2-           
     e(192 -192) =     14.48565  eV     1   --> G_2+           
     e(193 -193) =     14.70487  eV     1   --> G_2-           
     e(194 -194) =     14.74711  eV     1   --> G_2+           
     e(195 -195) =     14.89294  eV     1   --> G_2-           
     e(196 -196) =     14.94759  eV     1   --> G_2+           
     e(197 -197) =     15.56071  eV     1   --> G_2-           
     e(198 -198) =     15.60456  eV     1   --> G_2+           
     e(199 -199) =     15.74160  eV     1   --> G_2-           
     e(200 -200) =     15.75601  eV     1   --> G_2+           

 **************************************************************************
 
     BANDS        :     11h48m CPU     13h45m WALL

 
   This run was terminated on:  10:18:27  16Jul2025            

=------------------------------------------------------------------------------=
   JOB DONE.
=------------------------------------------------------------------------------=
