
     Program PWSCF v.7.2 starts on 14Jul2025 at 13:18:11 

     This program is part of the open-source Quantum ESPRESSO suite
     for quantum simulation of materials; please cite
         "P. Giannozzi et al., J. Phys.:Condens. Matter 21 395502 (2009);
         "P. Giannozzi et al., J. Phys.:Condens. Matter 29 465901 (2017);
         "P. Giannozzi et al., J. Chem. Phys. 152 154105 (2020);
          URL http://www.quantum-espresso.org", 
     in publications or presentations arising from this work. More details at
     http://www.quantum-espresso.org/quote

     Parallel version (MPI), running on    32 processors

     MPI processes distributed on     1 nodes
     251792 MiB available memory on the printing compute node when the environment starts
 
     Reading input from MnBi2Te4.nscf.in

     Current dimensions of program PWSCF are:
     Max number of different atomic species (ntypx) = 10
     Max number of k-points (npk) = 120000
     Max angular momentum in pseudopotentials (lmaxx) =  4

     Atomic positions and unit cell read from directory:
     ./tmp/MnBi2Te4.save/
     Atomic positions from file used, from input discarded
 
     file Mn.rel-pbe-spn-kjpaw_psl.1.0.0.UPF: wavefunction(s)  3S 4S 3P 3P 3D 3D renormalized
     file Mn.rel-pbe-spn-kjpaw_psl.1.0.0.UPF: wavefunction(s)  3S 4S 3P 3P 3D 3D renormalized
     file Bi.rel-pbe-dn-kjpaw_psl.1.0.0.UPF: wavefunction(s)  6P 6P 5D 5D renormalized
     file Te.rel-pbe-n-kjpaw_psl.1.0.0.UPF: wavefunction(s)  5S 5P 5P renormalized

     Fixed quantization axis for GGA:     0.000000    0.000000    1.000000
 
     R & G space division:  proc/nbgrp/npool/nimage =      32
     Subspace diagonalization in iterative solution of the eigenvalue problem:
     one sub-group per band group will be used
     scalapack distributed-memory algorithm (size of sub-group:  2*  2 procs)

 
     Parallelization info
     --------------------
     sticks:   dense  smooth     PW     G-vecs:    dense   smooth      PW
     Min         252     252     76                 5873     5873     976
     Max         253     253     77                 5875     5875     977
     Sum        8079    8079   2441               187971   187971   31237
 
     Using Slab Decomposition
 


     bravais-lattice index     =            5
     lattice parameter (alat)  =      51.7756  a.u.
     unit-cell volume          =    2994.5593 (a.u.)^3
     number of atoms/cell      =           14
     number of atomic types    =            4
     number of electrons       =       138.00
     number of Kohn-Sham states=          200
     kinetic-energy cutoff     =      60.0000  Ry
     charge density cutoff     =     240.0000  Ry
     Exchange-correlation= SLA  PW   PBX  PBC
                           (   1   4   3   4   0   0   0)
     Noncollinear calculation with spin-orbit

     Hubbard projectors: ortho-atomic
     Hubbard parameters of DFT+U (Liechtenstein formulation) in eV:
     U(Mn1-3d) =  4.0000
     U(Mn2-3d) =  4.0000
     DFT+U on averaged j=l+1/2,l-1/2 radial WFs

     Internal variables: lda_plus_u = T, lda_plus_u_kind = 1

     celldm(1)=  51.775623  celldm(2)=   0.000000  celldm(3)=   0.000000
     celldm(4)=   0.987491  celldm(5)=   0.000000  celldm(6)=   0.000000

     crystal axes: (cart. coord. in units of alat)
               a(1) = (   0.079085  -0.045660   0.995822 )  
               a(2) = (   0.000000   0.091319   0.995822 )  
               a(3) = (  -0.079085  -0.045660   0.995822 )  

     reciprocal axes: (cart. coord. in units 2 pi/alat)
               b(1) = (  6.322337 -3.650203  0.334732 )  
               b(2) = (  0.000000  7.300406  0.334732 )  
               b(3) = ( -6.322337 -3.650203  0.334732 )  


     PseudoPot. # 1 for Mn read from file:
     ./Mn.rel-pbe-spn-kjpaw_psl.1.0.0.UPF
     MD5 check sum: 62c7b35748dc83398aa7a788c15386af
     Pseudo is Projector augmented-wave + core cor, Zval = 15.0
     Generated using 'atomic' code by A. Dal Corso  v.7.1
     Shape of augmentation charge: PSQ
     Using radial grid of 1187 points, 10 beta functions with: 
                l(1) =   0
                l(2) =   0
                l(3) =   1
                l(4) =   1
                l(5) =   1
                l(6) =   1
                l(7) =   2
                l(8) =   2
                l(9) =   2
               l(10) =   2
     Q(r) pseudized with 0 coefficients 


     PseudoPot. # 2 for Mn read from file:
     ./Mn.rel-pbe-spn-kjpaw_psl.1.0.0.UPF
     MD5 check sum: 62c7b35748dc83398aa7a788c15386af
     Pseudo is Projector augmented-wave + core cor, Zval = 15.0
     Generated using 'atomic' code by A. Dal Corso  v.7.1
     Shape of augmentation charge: PSQ
     Using radial grid of 1187 points, 10 beta functions with: 
                l(1) =   0
                l(2) =   0
                l(3) =   1
                l(4) =   1
                l(5) =   1
                l(6) =   1
                l(7) =   2
                l(8) =   2
                l(9) =   2
               l(10) =   2
     Q(r) pseudized with 0 coefficients 


     PseudoPot. # 3 for Bi read from file:
     ./Bi.rel-pbe-dn-kjpaw_psl.1.0.0.UPF
     MD5 check sum: fc32cfc87b481ddd01d0f21eceeae593
     Pseudo is Projector augmented-wave + core cor, Zval = 15.0
     Generated using 'atomic' code by A. Dal Corso  v.7.1
     Shape of augmentation charge: PSQ
     Using radial grid of 1283 points, 10 beta functions with: 
                l(1) =   0
                l(2) =   0
                l(3) =   1
                l(4) =   1
                l(5) =   1
                l(6) =   1
                l(7) =   2
                l(8) =   2
                l(9) =   2
               l(10) =   2
     Q(r) pseudized with 0 coefficients 


     PseudoPot. # 4 for Te read from file:
     ./Te.rel-pbe-n-kjpaw_psl.1.0.0.UPF
     MD5 check sum: 5d6e171516c684cb1de97b601e9672ea
     Pseudo is Projector augmented-wave + core cor, Zval =  6.0
     Generated using 'atomic' code by A. Dal Corso  v.7.1
     Shape of augmentation charge: PSQ
     Using radial grid of 1245 points, 10 beta functions with: 
                l(1) =   0
                l(2) =   0
                l(3) =   1
                l(4) =   1
                l(5) =   1
                l(6) =   1
                l(7) =   2
                l(8) =   2
                l(9) =   2
               l(10) =   2
     Q(r) pseudized with 0 coefficients 


     atomic species   valence    mass     pseudopotential
        Mn1           15.00    54.93800     Mn( 1.00)
        Mn2           15.00    54.93800     Mn( 1.00)
        Bi            15.00   208.98000     Bi( 1.00)
        Te             6.00   127.60300     Te( 1.00)

     12 Sym. Ops., with inversion, found


                                    s                        frac. trans.

      isym =  1     identity                                     

 Time Reversal            0
 cryst.   s( 1) = (     1          0          0      )
                  (     0          1          0      )
                  (     0          0          1      )

 cart.    s( 1) = (  1.0000000  0.0000000  0.0000000 )
                  (  0.0000000  1.0000000  0.0000000 )
                  (  0.0000000  0.0000000  1.0000000 )


      isym =  2     180 deg rotation - cart. axis [1,0,0]        

 Time Reversal            1
 cryst.   s( 2) = (     0          0         -1      )
                  (     0         -1          0      )
                  (    -1          0          0      )

 cart.    s( 2) = (  1.0000000  0.0000000  0.0000000 )
                  (  0.0000000 -1.0000000  0.0000000 )
                  (  0.0000000  0.0000000 -1.0000000 )


      isym =  3     120 deg rotation - cryst. axis [0,0,1]       

 Time Reversal            0
 cryst.   s( 3) = (     0          1          0      )
                  (     0          0          1      )
                  (     1          0          0      )

 cart.    s( 3) = ( -0.5000000 -0.8660254 -0.0000000 )
                  (  0.8660254 -0.5000000 -0.0000000 )
                  (  0.0000000  0.0000000  1.0000000 )


      isym =  4     120 deg rotation - cryst. axis [0,0,-1]      

 Time Reversal            0
 cryst.   s( 4) = (     0          0          1      )
                  (     1          0          0      )
                  (     0          1          0      )

 cart.    s( 4) = ( -0.5000000  0.8660254  0.0000000 )
                  ( -0.8660254 -0.5000000 -0.0000000 )
                  (  0.0000000  0.0000000  1.0000000 )


      isym =  5     180 deg rotation - cryst. axis [0,1,0]       

 Time Reversal            1
 cryst.   s( 5) = (     0         -1          0      )
                  (    -1          0          0      )
                  (     0          0         -1      )

 cart.    s( 5) = ( -0.5000000 -0.8660254 -0.0000000 )
                  ( -0.8660254  0.5000000  0.0000000 )
                  (  0.0000000  0.0000000 -1.0000000 )


      isym =  6     180 deg rotation - cryst. axis [1,1,0]       

 Time Reversal            1
 cryst.   s( 6) = (    -1          0          0      )
                  (     0          0         -1      )
                  (     0         -1          0      )

 cart.    s( 6) = ( -0.5000000  0.8660254  0.0000000 )
                  (  0.8660254  0.5000000  0.0000000 )
                  (  0.0000000  0.0000000 -1.0000000 )


      isym =  7     inversion                                    

 Time Reversal            0
 cryst.   s( 7) = (    -1          0          0      )
                  (     0         -1          0      )
                  (     0          0         -1      )

 cart.    s( 7) = ( -1.0000000  0.0000000  0.0000000 )
                  (  0.0000000 -1.0000000  0.0000000 )
                  (  0.0000000  0.0000000 -1.0000000 )


      isym =  8     inv. 180 deg rotation - cart. axis [1,0,0]   

 Time Reversal            1
 cryst.   s( 8) = (     0          0          1      )
                  (     0          1          0      )
                  (     1          0          0      )

 cart.    s( 8) = ( -1.0000000  0.0000000  0.0000000 )
                  (  0.0000000  1.0000000  0.0000000 )
                  (  0.0000000  0.0000000  1.0000000 )


      isym =  9     inv. 120 deg rotation - cryst. axis [0,0,1]  

 Time Reversal            0
 cryst.   s( 9) = (     0         -1          0      )
                  (     0          0         -1      )
                  (    -1          0          0      )

 cart.    s( 9) = (  0.5000000  0.8660254  0.0000000 )
                  ( -0.8660254  0.5000000  0.0000000 )
                  (  0.0000000  0.0000000 -1.0000000 )


      isym = 10     inv. 120 deg rotation - cryst. axis [0,0,-1] 

 Time Reversal            0
 cryst.   s(10) = (     0          0         -1      )
                  (    -1          0          0      )
                  (     0         -1          0      )

 cart.    s(10) = (  0.5000000 -0.8660254 -0.0000000 )
                  (  0.8660254  0.5000000  0.0000000 )
                  (  0.0000000  0.0000000 -1.0000000 )


      isym = 11     inv. 180 deg rotation - cryst. axis [0,1,0]  

 Time Reversal            1
 cryst.   s(11) = (     0          1          0      )
                  (     1          0          0      )
                  (     0          0          1      )

 cart.    s(11) = (  0.5000000  0.8660254  0.0000000 )
                  (  0.8660254 -0.5000000 -0.0000000 )
                  (  0.0000000  0.0000000  1.0000000 )


      isym = 12     inv. 180 deg rotation - cryst. axis [1,1,0]  

 Time Reversal            1
 cryst.   s(12) = (     1          0          0      )
                  (     0          0          1      )
                  (     0          1          0      )

 cart.    s(12) = (  0.5000000 -0.8660254 -0.0000000 )
                  ( -0.8660254 -0.5000000 -0.0000000 )
                  (  0.0000000  0.0000000  1.0000000 )


     the magnetic double point group is D_3d (-3m)  [S_6 (-3)   ]
     using the double point group S_6 (-3)   
     there are 12 classes and  6 irreducible representations
     the character table:

       E     -E    C3    -C3   C3^2  -C3^2  i    -i    S6^5  -S6^5 S6    -S6  
                                                                              
G_4+   1.00 -1.00  0.50 -0.50  0.50 -0.50  1.00 -1.00  0.50 -0.50  0.50 -0.50
G_5+   1.00 -1.00  0.50 -0.50  0.50 -0.50  1.00 -1.00  0.50 -0.50  0.50 -0.50
G_6+   1.00 -1.00 -1.00  1.00 -1.00  1.00  1.00 -1.00 -1.00  1.00 -1.00  1.00
G_4-   1.00 -1.00  0.50 -0.50  0.50 -0.50 -1.00  1.00 -0.50  0.50 -0.50  0.50
G_5-   1.00 -1.00  0.50 -0.50  0.50 -0.50 -1.00  1.00 -0.50  0.50 -0.50  0.50
G_6-   1.00 -1.00 -1.00  1.00 -1.00  1.00 -1.00  1.00  1.00 -1.00  1.00 -1.00

     imaginary part

       E     -E    C3    -C3   C3^2  -C3^2  i    -i    S6^5  -S6^5 S6    -S6  
                                                                              
G_4+   0.00  0.00  0.87 -0.87 -0.87  0.87  0.00  0.00  0.87 -0.87 -0.87  0.87
G_5+   0.00  0.00 -0.87  0.87  0.87 -0.87  0.00  0.00 -0.87  0.87  0.87 -0.87
G_6+   0.00  0.00  0.00  0.00  0.00  0.00  0.00  0.00  0.00  0.00  0.00  0.00
G_4-   0.00  0.00  0.87 -0.87 -0.87  0.87  0.00  0.00 -0.87  0.87  0.87 -0.87
G_5-   0.00  0.00 -0.87  0.87  0.87 -0.87  0.00  0.00  0.87 -0.87 -0.87  0.87
G_6-   0.00  0.00  0.00  0.00  0.00  0.00  0.00  0.00  0.00  0.00  0.00  0.00

     the symmetry operations in each class and the name of the first element:

     E             1
          identity                                               
     -E           -1
          identity E                                             
     C3            2
          120 deg rotation - cryst. axis [0,0,1]                 
     -C3          -2
          120 deg rotation - cryst. axis [0,0,1] E               
     C3^2          3
          120 deg rotation - cryst. axis [0,0,-1]                
     -C3^2        -3
          120 deg rotation - cryst. axis [0,0,-1] E              
      i            4
          inversion                                              
     -i           -4
          inversion E                                            
     S6^5          5
          inv. 120 deg rotation - cryst. axis [0,0,1]            
     -S6^5        -5
          inv. 120 deg rotation - cryst. axis [0,0,1] E          
     S6            6
          inv. 120 deg rotation - cryst. axis [0,0,-1]           
     -S6          -6
          inv. 120 deg rotation - cryst. axis [0,0,-1] E         

   Cartesian axes

     site n.     atom                  positions (alat units)
         1           Mn1 tau(   1) = (   0.0000000   0.0000000   0.0000000  )
         2           Mn2 tau(   2) = (   0.0000000  -0.0000000   1.4937325  )
         3           Bi  tau(   3) = (   0.0000000  -0.0000000   0.6346869  )
         4           Bi  tau(   4) = (   0.0000000  -0.0000000   2.1284195  )
         5           Bi  tau(   5) = (   0.0000000  -0.0000000   0.8590456  )
         6           Bi  tau(   6) = (   0.0000000  -0.0000000   2.3527781  )
         7           Te  tau(   7) = (   0.0000000  -0.0000000   0.1992042  )
         8           Te  tau(   8) = (   0.0000000  -0.0000000   1.6929367  )
         9           Te  tau(   9) = (   0.0000000  -0.0000000   1.2945284  )
        10           Te  tau(  10) = (   0.0000000  -0.0000000   2.7882609  )
        11           Te  tau(  11) = (   0.0000000  -0.0000000   0.4392470  )
        12           Te  tau(  12) = (   0.0000000  -0.0000000   1.9329795  )
        13           Te  tau(  13) = (   0.0000000  -0.0000000   1.0544855  )
        14           Te  tau(  14) = (   0.0000000  -0.0000000   2.5482181  )

     --------------------------------------------
     DFT-D3 Dispersion Correction (3-body terms):
     --------------------------------------------
       Reference C6 values for interpolation: 

         atom   Coordination number   C6
         Mn1        0.000          1605.50
         Mn1        1.641           479.11
         Mn1        9.885           227.69
         Mn2        0.000          1605.50
         Mn2        1.641           479.11
         Mn2        9.885           227.69
         Te         0.000           851.07
         Te         0.981           850.20
         Te         1.964           837.16
         Bi         0.000          1235.06
         Bi         0.982          1188.09
         Bi         1.966          1132.10
         Bi         2.950          1067.76

       Values used:

         atom   Coordination number  R0_AB[au]  C6      C8
         Mn1        3.848            3.351    479.11  48433.79
         Mn2        3.848            3.351    479.11  48433.79
         Bi         5.275            3.890   1067.76 147315.96
         Bi         5.275            3.890   1067.76 147315.96
         Bi         5.275            3.890   1067.76 147315.96
         Bi         5.275            3.890   1067.76 147315.96
         Te         3.328            3.676    837.16  84978.06
         Te         3.328            3.676    837.16  84978.06
         Te         3.328            3.676    837.16  84978.06
         Te         3.328            3.676    837.16  84978.06
         Te         4.238            3.676    837.16  84978.05
         Te         4.238            3.676    837.16  84978.05
         Te         4.238            3.676    837.16  84978.05
         Te         4.238            3.676    837.16  84978.05

         Molecular C6 ( Ry / a.u.^6 ) =    164642.77


   Crystallographic axes

     site n.     atom                  positions (cryst. coord.)
         1           Mn1 tau(   1) = (  0.0000000  0.0000000  0.0000000  )
         2           Mn2 tau(   2) = (  0.5000000  0.5000000  0.5000000  )
         3           Bi  tau(   3) = (  0.2124500  0.2124500  0.2124500  )
         4           Bi  tau(   4) = (  0.7124500  0.7124500  0.7124500  )
         5           Bi  tau(   5) = (  0.2875500  0.2875500  0.2875500  )
         6           Bi  tau(   6) = (  0.7875500  0.7875500  0.7875500  )
         7           Te  tau(   7) = (  0.0666800  0.0666800  0.0666800  )
         8           Te  tau(   8) = (  0.5666800  0.5666800  0.5666800  )
         9           Te  tau(   9) = (  0.4333200  0.4333200  0.4333200  )
        10           Te  tau(  10) = (  0.9333200  0.9333200  0.9333200  )
        11           Te  tau(  11) = (  0.1470300  0.1470300  0.1470300  )
        12           Te  tau(  12) = (  0.6470300  0.6470300  0.6470300  )
        13           Te  tau(  13) = (  0.3529700  0.3529700  0.3529700  )
        14           Te  tau(  14) = (  0.8529700  0.8529700  0.8529700  )

     number of k points=    65  Marzari-Vanderbilt smearing, width (Ry)=  0.0200
                       cart. coord. in units 2pi/alat
        k(    1) = (   0.0000000   0.0000000   0.0000000), wk =   0.0019531
        k(    2) = (  -0.7902921  -0.4562754   0.0418415), wk =   0.0117188
        k(    3) = (  -1.5805843  -0.9125508   0.0836830), wk =   0.0117188
        k(    4) = (  -2.3708764  -1.3688261   0.1255245), wk =   0.0117188
        k(    5) = (   3.1611686   1.8251015  -0.1673660), wk =   0.0058594
        k(    6) = (  -0.7902921   0.4562754   0.0836830), wk =   0.0117188
        k(    7) = (  -1.5805843   0.0000000   0.1255245), wk =   0.0234375
        k(    8) = (  -2.3708764  -0.4562754   0.1673660), wk =   0.0234375
        k(    9) = (   3.1611686   2.7376523  -0.1255245), wk =   0.0234375
        k(   10) = (   2.3708764   2.2813769  -0.0836830), wk =   0.0234375
        k(   11) = (   1.5805843   1.8251015  -0.0418415), wk =   0.0234375
        k(   12) = (   0.7902921   1.3688261   0.0000000), wk =   0.0117188
        k(   13) = (  -1.5805843   0.9125508   0.1673660), wk =   0.0117188
        k(   14) = (  -2.3708764   0.4562754   0.2092075), wk =   0.0234375
        k(   15) = (   3.1611686   3.6502030  -0.0836830), wk =   0.0234375
        k(   16) = (   2.3708764   3.1939277  -0.0418415), wk =   0.0234375
        k(   17) = (   1.5805843   2.7376523   0.0000000), wk =   0.0117188
        k(   18) = (  -2.3708764   1.3688261   0.2510490), wk =   0.0117188
        k(   19) = (   3.1611686   4.5627538  -0.0418415), wk =   0.0234375
        k(   20) = (   2.3708764   4.1064784   0.0000000), wk =   0.0117188
        k(   21) = (   3.1611686  -1.8251015  -0.3347320), wk =   0.0058594
        k(   22) = (   0.0000000   0.0000000   0.1255245), wk =   0.0039062
        k(   23) = (  -0.7902921  -0.4562754   0.1673660), wk =   0.0117188
        k(   24) = (  -1.5805843  -0.9125508   0.2092075), wk =   0.0117188
        k(   25) = (   3.9514607   2.2813769  -0.0836830), wk =   0.0117188
        k(   26) = (   3.1611686   1.8251015  -0.0418415), wk =   0.0117188
        k(   27) = (   2.3708764   1.3688261   0.0000000), wk =   0.0117188
        k(   28) = (   1.5805843   0.9125508   0.0418415), wk =   0.0117188
        k(   29) = (  -0.7902921   0.4562754   0.2092075), wk =   0.0117188
        k(   30) = (  -1.5805843   0.0000000   0.2510490), wk =   0.0234375
        k(   31) = (   3.9514607   3.1939277  -0.0418415), wk =   0.0234375
        k(   32) = (   3.1611686   2.7376523   0.0000000), wk =   0.0234375
        k(   33) = (   2.3708764   2.2813769   0.0418415), wk =   0.0234375
        k(   34) = (   1.5805843   1.8251015   0.0836830), wk =   0.0234375
        k(   35) = (  -1.5805843   0.9125508   0.2928905), wk =   0.0117188
        k(   36) = (   3.9514607   4.1064784   0.0000000), wk =   0.0234375
        k(   37) = (   3.1611686   3.6502030   0.0418415), wk =   0.0234375
        k(   38) = (   2.3708764   3.1939277   0.0836830), wk =   0.0234375
        k(   39) = (   1.5805843   2.7376523   0.1255245), wk =   0.0234375
        k(   40) = (   3.9514607  -2.2813769  -0.2928905), wk =   0.0117188
        k(   41) = (   3.1611686  -2.7376523  -0.2510490), wk =   0.0234375
        k(   42) = (   2.3708764  -3.1939277  -0.2092075), wk =   0.0234375
        k(   43) = (   1.5805843  -3.6502030  -0.1673660), wk =   0.0117188
        k(   44) = (   3.1611686  -1.8251015  -0.2092075), wk =   0.0117188
        k(   45) = (   2.3708764  -2.2813769  -0.1673660), wk =   0.0234375
        k(   46) = (   2.3708764  -1.3688261  -0.1255245), wk =   0.0117188
        k(   47) = (   0.0000000   0.0000000   0.2510490), wk =   0.0039062
        k(   48) = (  -0.7902921  -0.4562754   0.2928905), wk =   0.0117188
        k(   49) = (   4.7417528   2.7376523   0.0000000), wk =   0.0117188
        k(   50) = (   3.9514607   2.2813769   0.0418415), wk =   0.0117188
        k(   51) = (   3.1611686   1.8251015   0.0836830), wk =   0.0117188
        k(   52) = (  -0.7902921   0.4562754   0.3347320), wk =   0.0117188
        k(   53) = (   4.7417528   3.6502030   0.0418415), wk =   0.0234375
        k(   54) = (   3.9514607   3.1939277   0.0836830), wk =   0.0234375
        k(   55) = (   3.1611686   2.7376523   0.1255245), wk =   0.0234375
        k(   56) = (   4.7417528  -2.7376523  -0.2510490), wk =   0.0117188
        k(   57) = (   3.9514607  -3.1939277  -0.2092075), wk =   0.0234375
        k(   58) = (   3.1611686  -3.6502030  -0.1673660), wk =   0.0117188
        k(   59) = (   3.9514607  -2.2813769  -0.1673660), wk =   0.0117188
        k(   60) = (   0.0000000   0.0000000   0.3765734), wk =   0.0039062
        k(   61) = (   5.5320450   3.1939277   0.0836830), wk =   0.0117188
        k(   62) = (   4.7417528   2.7376523   0.1255245), wk =   0.0117188
        k(   63) = (   5.5320450  -3.1939277  -0.2092075), wk =   0.0117188
        k(   64) = (   4.7417528  -3.6502030  -0.1673660), wk =   0.0117188
        k(   65) = (   0.0000000   0.0000000  -0.5020979), wk =   0.0019531

                       cryst. coord.
        k(    1) = (   0.0000000   0.0000000   0.0000000), wk =   0.0019531
        k(    2) = (   0.0000000  -0.0000000   0.1250000), wk =   0.0117188
        k(    3) = (   0.0000000  -0.0000000   0.2500000), wk =   0.0117188
        k(    4) = (   0.0000000   0.0000000   0.3750000), wk =   0.0117188
        k(    5) = (   0.0000000   0.0000000  -0.5000000), wk =   0.0058594
        k(    6) = (  -0.0000000   0.1250000   0.1250000), wk =   0.0117188
        k(    7) = (  -0.0000000   0.1250000   0.2500000), wk =   0.0234375
        k(    8) = (   0.0000000   0.1250000   0.3750000), wk =   0.0234375
        k(    9) = (   0.0000000   0.1250000  -0.5000000), wk =   0.0234375
        k(   10) = (  -0.0000000   0.1250000  -0.3750000), wk =   0.0234375
        k(   11) = (   0.0000000   0.1250000  -0.2500000), wk =   0.0234375
        k(   12) = (  -0.0000000   0.1250000  -0.1250000), wk =   0.0117188
        k(   13) = (  -0.0000000   0.2500000   0.2500000), wk =   0.0117188
        k(   14) = (   0.0000000   0.2500000   0.3750000), wk =   0.0234375
        k(   15) = (   0.0000000   0.2500000  -0.5000000), wk =   0.0234375
        k(   16) = (  -0.0000000   0.2500000  -0.3750000), wk =   0.0234375
        k(   17) = (  -0.0000000   0.2500000  -0.2500000), wk =   0.0117188
        k(   18) = (   0.0000000   0.3750000   0.3750000), wk =   0.0117188
        k(   19) = (   0.0000000   0.3750000  -0.5000000), wk =   0.0234375
        k(   20) = (  -0.0000000   0.3750000  -0.3750000), wk =   0.0117188
        k(   21) = (   0.0000000  -0.5000000  -0.5000000), wk =   0.0058594
        k(   22) = (   0.1250000   0.1250000   0.1250000), wk =   0.0039062
        k(   23) = (   0.1250000   0.1250000   0.2500000), wk =   0.0117188
        k(   24) = (   0.1250000   0.1250000   0.3750000), wk =   0.0117188
        k(   25) = (   0.1250000   0.1250000  -0.5000000), wk =   0.0117188
        k(   26) = (   0.1250000   0.1250000  -0.3750000), wk =   0.0117188
        k(   27) = (   0.1250000   0.1250000  -0.2500000), wk =   0.0117188
        k(   28) = (   0.1250000   0.1250000  -0.1250000), wk =   0.0117188
        k(   29) = (   0.1250000   0.2500000   0.2500000), wk =   0.0117188
        k(   30) = (   0.1250000   0.2500000   0.3750000), wk =   0.0234375
        k(   31) = (   0.1250000   0.2500000  -0.5000000), wk =   0.0234375
        k(   32) = (   0.1250000   0.2500000  -0.3750000), wk =   0.0234375
        k(   33) = (   0.1250000   0.2500000  -0.2500000), wk =   0.0234375
        k(   34) = (   0.1250000   0.2500000  -0.1250000), wk =   0.0234375
        k(   35) = (   0.1250000   0.3750000   0.3750000), wk =   0.0117188
        k(   36) = (   0.1250000   0.3750000  -0.5000000), wk =   0.0234375
        k(   37) = (   0.1250000   0.3750000  -0.3750000), wk =   0.0234375
        k(   38) = (   0.1250000   0.3750000  -0.2500000), wk =   0.0234375
        k(   39) = (   0.1250000   0.3750000  -0.1250000), wk =   0.0234375
        k(   40) = (   0.1250000  -0.5000000  -0.5000000), wk =   0.0117188
        k(   41) = (   0.1250000  -0.5000000  -0.3750000), wk =   0.0234375
        k(   42) = (   0.1250000  -0.5000000  -0.2500000), wk =   0.0234375
        k(   43) = (   0.1250000  -0.5000000  -0.1250000), wk =   0.0117188
        k(   44) = (   0.1250000  -0.3750000  -0.3750000), wk =   0.0117188
        k(   45) = (   0.1250000  -0.3750000  -0.2500000), wk =   0.0234375
        k(   46) = (   0.1250000  -0.2500000  -0.2500000), wk =   0.0117188
        k(   47) = (   0.2500000   0.2500000   0.2500000), wk =   0.0039062
        k(   48) = (   0.2500000   0.2500000   0.3750000), wk =   0.0117188
        k(   49) = (   0.2500000   0.2500000  -0.5000000), wk =   0.0117188
        k(   50) = (   0.2500000   0.2500000  -0.3750000), wk =   0.0117188
        k(   51) = (   0.2500000   0.2500000  -0.2500000), wk =   0.0117188
        k(   52) = (   0.2500000   0.3750000   0.3750000), wk =   0.0117188
        k(   53) = (   0.2500000   0.3750000  -0.5000000), wk =   0.0234375
        k(   54) = (   0.2500000   0.3750000  -0.3750000), wk =   0.0234375
        k(   55) = (   0.2500000   0.3750000  -0.2500000), wk =   0.0234375
        k(   56) = (   0.2500000  -0.5000000  -0.5000000), wk =   0.0117188
        k(   57) = (   0.2500000  -0.5000000  -0.3750000), wk =   0.0234375
        k(   58) = (   0.2500000  -0.5000000  -0.2500000), wk =   0.0117188
        k(   59) = (   0.2500000  -0.3750000  -0.3750000), wk =   0.0117188
        k(   60) = (   0.3750000   0.3750000   0.3750000), wk =   0.0039062
        k(   61) = (   0.3750000   0.3750000  -0.5000000), wk =   0.0117188
        k(   62) = (   0.3750000   0.3750000  -0.3750000), wk =   0.0117188
        k(   63) = (   0.3750000  -0.5000000  -0.5000000), wk =   0.0117188
        k(   64) = (   0.3750000  -0.5000000  -0.3750000), wk =   0.0117188
        k(   65) = (  -0.5000000  -0.5000000  -0.5000000), wk =   0.0019531

     Dense  grid:   187971 G-vectors     FFT dimensions: ( 256, 256, 256)

     Dynamical RAM for                 wfc:       4.48 MB

     Dynamical RAM for     wfc (w. buffer):       4.48 MB

     Dynamical RAM for             U proj.:       0.99 MB

     Dynamical RAM for  U proj. (w. buff.):       0.99 MB

     Dynamical RAM for           str. fact:       0.36 MB

     Dynamical RAM for           local pot:       0.00 MB

     Dynamical RAM for          nlocal pot:       5.33 MB

     Dynamical RAM for                qrad:      13.03 MB

     Dynamical RAM for          rho,v,vnew:      49.08 MB

     Dynamical RAM for           G-vectors:       0.38 MB

     Dynamical RAM for          h,s,v(r/c):       1.83 MB

     Dynamical RAM for          <psi|beta>:       2.91 MB

     Dynamical RAM for                 psi:       8.96 MB

     Dynamical RAM for                hpsi:       8.96 MB

     Dynamical RAM for                spsi:       8.96 MB

     Dynamical RAM for      wfcinit/wfcrot:       7.64 MB

     Dynamical RAM for           addusdens:      55.66 MB

     Estimated static dynamical RAM per process >     106.09 MB

     Estimated max dynamical RAM per process >     161.75 MB

     Estimated total dynamical RAM >       5.05 GB

     Check: negative core charge=   -0.000001
     Generating pointlists ...
     new r_m :   0.0448 (alat units)  2.3181 (a.u.) for type    1
     new r_m :   0.0448 (alat units)  2.3181 (a.u.) for type    2
     new r_m :   0.0456 (alat units)  2.3625 (a.u.) for type    3
     new r_m :   0.0448 (alat units)  2.3181 (a.u.) for type    4

     The potential is recalculated from file :
     ./tmp/MnBi2Te4.save/charge-density

 --- in v_hubbard ---
Hub. E (dc, noflip, flip, total)    6.5944   6.6779  -0.0003   0.0831
 -------

     STARTING HUBBARD OCCUPATIONS:

     ================= HUBBARD OCCUPATIONS ================
     ------------------------ ATOM    1 ------------------------
     Tr[ns(  1)] (up, down, total) =   4.97490  0.28730  5.26220
     eigenvalues:
       0.017  0.018  0.019  0.115  0.119  0.990  0.991  0.998  0.998  0.998
     eigenvectors (columns):
      -0.000  0.000  0.008 -0.010  0.000 -0.000  0.000  0.000  1.000  0.000
      -0.000 -0.000  0.000 -0.000  0.000  0.048 -0.000 -0.000 -0.000 -0.000
      -0.010 -0.007  0.000 -0.000  0.005  0.527 -0.503  0.469 -0.000 -0.496
       0.000  0.005 -0.000  0.000  0.005 -0.467  0.496  0.529 -0.000 -0.503
       0.000  0.000  0.000 -0.000  0.000 -0.042  0.000 -0.000 -0.000 -0.000
       0.015  0.000  0.000  0.000 -0.000  0.001 -0.000 -0.000 -0.000 -0.000
       0.000 -0.439  0.394 -0.587 -0.555  0.000  0.006 -0.000 -0.009 -0.005
      -0.000 -0.000 -0.000  0.000 -0.000 -0.000 -0.000  0.000 -0.000 -0.000
      -0.000 -0.000 -0.000 -0.000  0.000  0.000  0.000  0.000 -0.000 -0.000
       0.000 -0.555  0.587  0.394  0.439  0.000  0.006 -0.000 -0.001  0.005
     occupations, | n_(i1, i2)^(sigma1, sigma2) |:
       0.998  0.000  0.000  0.000  0.000  0.000  0.008  0.008  0.001  0.001
       0.000  0.994  0.000  0.000  0.004  0.010  0.001  0.001  0.005  0.005
       0.000  0.000  0.994  0.004  0.000  0.010  0.001  0.001  0.005  0.005
       0.000  0.000  0.004  0.995  0.000  0.000  0.005  0.005  0.001  0.001
       0.000  0.004  0.000  0.000  0.995  0.000  0.005  0.005  0.001  0.001
       0.000  0.010  0.010  0.000  0.000  0.017  0.000  0.000  0.000  0.000
       0.008  0.001  0.001  0.005  0.005  0.000  0.083  0.003  0.002  0.047
       0.008  0.001  0.001  0.005  0.005  0.000  0.003  0.083  0.047  0.002
       0.001  0.005  0.005  0.001  0.001  0.000  0.002  0.047  0.053  0.004
       0.001  0.005  0.005  0.001  0.001  0.000  0.047  0.002  0.004  0.053
     Atomic magnetic moment mx, my, mz =     0.000000   -0.000000    4.687608
     ------------------------ ATOM    2 ------------------------
     Tr[ns(  2)] (up, down, total) =   0.28765  4.97496  5.26261
     eigenvalues:
       0.017  0.018  0.019  0.115  0.119  0.990  0.991  0.998  0.998  0.998
     eigenvectors (columns):
      -1.000  0.000 -0.000  0.000 -0.000  0.011 -0.000  0.009  0.000  0.000
      -0.000 -0.000  0.000  0.084 -0.000  0.000 -0.000  0.000 -0.000 -0.000
       0.000  0.439 -0.394  0.581 -0.555 -0.000 -0.006 -0.000  0.009  0.005
       0.000  0.555 -0.587 -0.390  0.439 -0.000 -0.006  0.000  0.001 -0.005
      -0.000 -0.000  0.000 -0.056  0.000  0.000 -0.000 -0.000 -0.000  0.000
       0.000  0.000 -0.000 -0.001  0.000  0.000  0.000 -0.000 -0.000  0.000
      -0.010 -0.007 -0.000  0.000 -0.004 -0.529 -0.504 -0.469 -0.000 -0.496
       0.000  0.000 -0.000 -0.000 -0.000  0.000 -0.000 -0.000  0.000  0.000
      -0.000  0.000  0.000 -0.000  0.000 -0.000  0.000 -0.000  0.000  0.000
       0.000  0.005  0.000 -0.000 -0.006  0.469  0.496 -0.529 -0.000 -0.504
     occupations, | n_(i1, i2)^(sigma1, sigma2) |:
       0.017  0.000  0.000  0.000  0.000  0.000  0.010  0.010  0.000  0.000
       0.000  0.083  0.003  0.002  0.047  0.008  0.001  0.001  0.005  0.005
       0.000  0.003  0.083  0.047  0.002  0.008  0.001  0.001  0.005  0.005
       0.000  0.002  0.047  0.053  0.004  0.001  0.005  0.005  0.001  0.001
       0.000  0.047  0.002  0.004  0.053  0.001  0.005  0.005  0.001  0.001
       0.000  0.008  0.008  0.001  0.001  0.998  0.000  0.000  0.000  0.000
       0.010  0.001  0.001  0.005  0.005  0.000  0.994  0.000  0.000  0.004
       0.010  0.001  0.001  0.005  0.005  0.000  0.000  0.994  0.004  0.000
       0.000  0.005  0.005  0.001  0.001  0.000  0.000  0.004  0.995  0.000
       0.000  0.005  0.005  0.001  0.001  0.000  0.004  0.000  0.000  0.995
     Atomic magnetic moment mx, my, mz =    -0.000000    0.000000   -4.687306

     Number of occupied Hubbard levels =   10.5248

     Atomic wfc used for Hubbard projectors are orthogonalized

     Starting wfcs are  176 randomized atomic wfcs +   24 random wfcs
     Checking if some PAW data can be deallocated... 
       PAW data deallocated on   29 nodes for type:  1
       PAW data deallocated on   29 nodes for type:  2
       PAW data deallocated on   22 nodes for type:  3
       PAW data deallocated on   16 nodes for type:  4

     Band Structure Calculation
     Davidson diagonalization with overlap

     Computing kpt #:     1  of    65
     total cpu time spent up to now is      261.9 secs

     Computing kpt #:     2  of    65
     total cpu time spent up to now is      543.8 secs

     Computing kpt #:     3  of    65
     total cpu time spent up to now is      800.9 secs

     Computing kpt #:     4  of    65
     total cpu time spent up to now is     1004.9 secs

     Computing kpt #:     5  of    65
     total cpu time spent up to now is     1208.5 secs

     Computing kpt #:     6  of    65
     total cpu time spent up to now is     1498.9 secs

     Computing kpt #:     7  of    65
     total cpu time spent up to now is     1736.5 secs

     Computing kpt #:     8  of    65
     total cpu time spent up to now is     1967.9 secs

     Computing kpt #:     9  of    65
     total cpu time spent up to now is     2171.4 secs

     Computing kpt #:    10  of    65
     total cpu time spent up to now is     2375.1 secs

     Computing kpt #:    11  of    65
     total cpu time spent up to now is     2605.7 secs

     Computing kpt #:    12  of    65
     total cpu time spent up to now is     2843.4 secs

     Computing kpt #:    13  of    65
     total cpu time spent up to now is     3095.1 secs

     Computing kpt #:    14  of    65
     total cpu time spent up to now is     3325.4 secs

     Computing kpt #:    15  of    65
     total cpu time spent up to now is     3528.3 secs

     Computing kpt #:    16  of    65
     total cpu time spent up to now is     3756.3 secs

     Computing kpt #:    17  of    65
     total cpu time spent up to now is     3957.6 secs

     Computing kpt #:    18  of    65
     total cpu time spent up to now is     4163.0 secs

     Computing kpt #:    19  of    65
     total cpu time spent up to now is     4367.9 secs

     Computing kpt #:    20  of    65
     total cpu time spent up to now is     4568.2 secs

     Computing kpt #:    21  of    65
     total cpu time spent up to now is     4771.4 secs

     Computing kpt #:    22  of    65
     total cpu time spent up to now is     5004.6 secs

     Computing kpt #:    23  of    65
     total cpu time spent up to now is     5290.5 secs

     Computing kpt #:    24  of    65
     total cpu time spent up to now is     5554.8 secs

     Computing kpt #:    25  of    65
     total cpu time spent up to now is     5760.9 secs

     Computing kpt #:    26  of    65
     total cpu time spent up to now is     5966.2 secs

     Computing kpt #:    27  of    65
     total cpu time spent up to now is     6171.5 secs

     Computing kpt #:    28  of    65
     total cpu time spent up to now is     6410.1 secs

     Computing kpt #:    29  of    65
     total cpu time spent up to now is     6693.7 secs

     Computing kpt #:    30  of    65
     total cpu time spent up to now is     6935.2 secs

     Computing kpt #:    31  of    65
     total cpu time spent up to now is     7166.7 secs

     Computing kpt #:    32  of    65
     total cpu time spent up to now is     7368.5 secs

     Computing kpt #:    33  of    65
     total cpu time spent up to now is     7573.0 secs

     Computing kpt #:    34  of    65
     total cpu time spent up to now is     7806.1 secs

     Computing kpt #:    35  of    65
     total cpu time spent up to now is     8070.2 secs

     Computing kpt #:    36  of    65
     total cpu time spent up to now is     8275.9 secs

     Computing kpt #:    37  of    65
     total cpu time spent up to now is     8478.8 secs

     Computing kpt #:    38  of    65
     total cpu time spent up to now is     8707.2 secs

     Computing kpt #:    39  of    65
     total cpu time spent up to now is     8909.4 secs

     Computing kpt #:    40  of    65
     total cpu time spent up to now is     9114.7 secs

     Computing kpt #:    41  of    65
     total cpu time spent up to now is     9319.5 secs

     Computing kpt #:    42  of    65
     total cpu time spent up to now is     9520.1 secs

     Computing kpt #:    43  of    65
     total cpu time spent up to now is     9724.7 secs

     Computing kpt #:    44  of    65
     total cpu time spent up to now is     9928.9 secs

     Computing kpt #:    45  of    65
     total cpu time spent up to now is    10133.3 secs

     Computing kpt #:    46  of    65
     total cpu time spent up to now is    10360.4 secs

     Computing kpt #:    47  of    65
     total cpu time spent up to now is    10599.6 secs

     Computing kpt #:    48  of    65
     total cpu time spent up to now is    10883.7 secs

     Computing kpt #:    49  of    65
     total cpu time spent up to now is    11146.5 secs

     Computing kpt #:    50  of    65
     total cpu time spent up to now is    11353.0 secs

     Computing kpt #:    51  of    65
     total cpu time spent up to now is    11559.1 secs

     Computing kpt #:    52  of    65
     total cpu time spent up to now is    11843.6 secs

     Computing kpt #:    53  of    65
     total cpu time spent up to now is    12134.2 secs

     Computing kpt #:    54  of    65
     total cpu time spent up to now is    12365.6 secs

     Computing kpt #:    55  of    65
     total cpu time spent up to now is    12569.8 secs

     Computing kpt #:    56  of    65
     total cpu time spent up to now is    12832.6 secs

     Computing kpt #:    57  of    65
     total cpu time spent up to now is    13065.6 secs

     Computing kpt #:    58  of    65
     total cpu time spent up to now is    13267.7 secs

     Computing kpt #:    59  of    65
     total cpu time spent up to now is    13473.2 secs

     Computing kpt #:    60  of    65
     total cpu time spent up to now is    13734.7 secs

     Computing kpt #:    61  of    65
     total cpu time spent up to now is    14018.8 secs

     Computing kpt #:    62  of    65
     total cpu time spent up to now is    14256.7 secs

     Computing kpt #:    63  of    65
     total cpu time spent up to now is    14542.6 secs

     Computing kpt #:    64  of    65
     total cpu time spent up to now is    14808.2 secs

     Computing kpt #:    65  of    65
     total cpu time spent up to now is    15121.2 secs

     ethr =  2.17E-08,  avg # of iterations = 50.1

     total cpu time spent up to now is    15121.3 secs

     End of band structure calculation

          k = 0.0000 0.0000 0.0000 ( 23485 PWs)   bands (ev):

   -75.0374 -74.9580 -70.2459 -70.1606 -44.1352 -44.0514 -43.7271 -43.6501
   -43.2268 -43.1432 -39.1780 -39.0983 -38.7704 -38.6851 -38.4257 -38.3460
   -17.0182 -17.0179 -16.9837 -16.9836 -16.9591 -16.9589 -16.9357 -16.9354
   -16.9351 -16.9350 -16.9247 -16.9245 -16.9146 -16.9144 -16.9135 -16.9133
   -13.9959 -13.9958 -13.9946 -13.9945 -13.9919 -13.9917 -13.9839 -13.9836
   -13.9739 -13.9737 -13.9714 -13.9712 -13.9567 -13.9565 -13.9531 -13.9530
   -13.9451 -13.9450 -13.9378 -13.9377 -13.9374 -13.9372 -13.9332 -13.9330
    -5.4872  -5.4848  -5.4563  -5.4550  -5.2720  -5.2677  -5.2226  -5.2189
    -3.8253  -3.8106  -3.6110  -3.5948  -3.3305  -3.3284  -3.0556  -3.0527
    -1.4690  -1.4656  -1.1168  -1.1152  -0.7930  -0.7901  -0.5006  -0.4998
     1.8106   1.8399   1.8900   1.8913   1.9204   1.9660   2.0834   2.1016
     2.1644   2.1826   3.9927   4.0006   4.2656   4.2792   4.6782   4.6897
     5.2041   5.2044   5.2278   5.2386   5.5005   5.5037   5.7357   5.7486
     5.7624   5.7727   6.1368   6.1908   6.2229   6.2323   6.2897   6.3189
     6.3545   6.3610   6.3728   6.3749   6.4527   6.4704   6.6289   6.6310
     6.7365   6.7559   6.8467   6.8536   6.9040   6.9550   7.0136   7.0190
     7.2187   7.2468   7.3186   7.3448   7.5114   7.5604   7.5734   7.5793
     7.6336   7.6439   7.8633   7.8643   7.8714   7.8759   7.9914   8.0131
     8.1829   8.1854   8.9656   8.9939   9.3007   9.3285   9.3331   9.3681
     9.4164   9.4311   9.4708   9.4799   9.6110   9.6219   9.8647   9.8734
     9.8909   9.9156  10.0533  10.1294  10.1305  10.1530  10.2031  10.2225
    10.7024  10.7776  10.9430  11.0091  11.4495  11.5059  11.6552  11.7126
    11.7674  11.8208  12.5724  12.6261  12.6796  12.7457  12.8253  12.8893
    13.2823  13.3100  13.3220  13.3436  13.3626  13.4130  13.4186  13.4284
    13.5855  13.5981  13.7403  13.7640  13.8018  13.8136  13.9195  13.9234

     occupation numbers 
     1.0000   1.0000   1.0000   1.0000   1.0000   1.0000   1.0000   1.0000
     1.0000   1.0000   1.0000   1.0000   1.0000   1.0000   1.0000   1.0000
     1.0000   1.0000   1.0000   1.0000   1.0000   1.0000   1.0000   1.0000
     1.0000   1.0000   1.0000   1.0000   1.0000   1.0000   1.0000   1.0000
     1.0000   1.0000   1.0000   1.0000   1.0000   1.0000   1.0000   1.0000
     1.0000   1.0000   1.0000   1.0000   1.0000   1.0000   1.0000   1.0000
     1.0000   1.0000   1.0000   1.0000   1.0000   1.0000   1.0000   1.0000
     1.0000   1.0000   1.0000   1.0000   1.0000   1.0000   1.0000   1.0000
     1.0000   1.0000   1.0000   1.0000   1.0000   1.0000   1.0000   1.0000
     1.0000   1.0000   1.0000   1.0000   1.0000   1.0000   1.0000   1.0000
     1.0000   1.0000   1.0000   1.0000   1.0000   1.0000   1.0000   1.0000
     1.0000   1.0000   1.0000   1.0000   1.0000   1.0000   1.0000   1.0000
     1.0000   1.0000   1.0000   1.0000   1.0000   1.0000   1.0000   1.0000
     1.0000   1.0000   1.0000   1.0000   1.0000   1.0000   1.0000   1.0000
     1.0000   1.0000   1.0000   1.0000   1.0000   1.0000   1.0001   1.0001
     1.0006   1.0009   1.0037   1.0041   1.0082   1.0152   1.0279   1.0293
     1.0833   1.0804   1.0396   1.0102   0.6484   0.5131   0.4780   0.4623
     0.3274   0.3041   0.0344   0.0340   0.0310   0.0293   0.0055   0.0038
     0.0002   0.0001   0.0000   0.0000   0.0000   0.0000   0.0000   0.0000
     0.0000   0.0000   0.0000   0.0000   0.0000   0.0000   0.0000   0.0000
     0.0000   0.0000   0.0000   0.0000   0.0000   0.0000   0.0000   0.0000
     0.0000   0.0000   0.0000   0.0000   0.0000   0.0000   0.0000   0.0000
     0.0000   0.0000   0.0000   0.0000   0.0000   0.0000   0.0000   0.0000
     0.0000   0.0000   0.0000   0.0000   0.0000   0.0000   0.0000   0.0000
     0.0000   0.0000   0.0000   0.0000   0.0000   0.0000   0.0000   0.0000

          k =-0.7903-0.4563 0.0418 ( 23446 PWs)   bands (ev):

   -75.0374 -74.9580 -70.2459 -70.1606 -44.1352 -44.0515 -43.7271 -43.6501
   -43.2269 -43.1432 -39.1781 -39.0984 -38.7704 -38.6851 -38.4258 -38.3461
   -17.0181 -17.0180 -16.9831 -16.9831 -16.9585 -16.9585 -16.9357 -16.9356
   -16.9344 -16.9344 -16.9241 -16.9240 -16.9146 -16.9146 -16.9135 -16.9134
   -13.9955 -13.9955 -13.9937 -13.9936 -13.9922 -13.9921 -13.9832 -13.9831
   -13.9747 -13.9747 -13.9703 -13.9703 -13.9562 -13.9562 -13.9520 -13.9520
   -13.9459 -13.9459 -13.9387 -13.9386 -13.9362 -13.9361 -13.9325 -13.9324
    -5.3504  -5.3480  -5.3208  -5.3193  -5.1380  -5.1337  -5.0907  -5.0869
    -3.7248  -3.7105  -3.5203  -3.5047  -3.2585  -3.2540  -3.0008  -2.9956
    -1.5013  -1.4980  -1.2132  -1.2107  -0.9087  -0.9058  -0.6883  -0.6863
     1.8359   1.8700   1.9072   1.9162   1.9500   1.9834   2.0770   2.0946
     2.1579   2.1755   3.9407   3.9531   3.9955   4.0132   4.4263   4.4416
     4.4440   4.4573   4.8893   4.9227   4.9860   5.0163   5.3266   5.3555
     5.4260   5.4434   5.6601   5.6626   5.7280   5.7483   5.7899   5.8098
     5.8981   5.9252   6.2344   6.2457   6.3635   6.3740   6.4019   6.4121
     6.4756   6.4858   6.5754   6.6022   6.8374   6.8569   6.9863   7.0063
     7.0605   7.0667   7.0745   7.1019   7.2745   7.3013   7.4408   7.4661
     7.5468   7.5510   8.0449   8.0538   8.1260   8.1383   8.5478   8.5544
     8.6682   8.6748   9.2741   9.3050   9.4797   9.4901   9.6376   9.6477
     9.6770   9.6886   9.8385   9.8517   9.9370   9.9522  10.0394  10.0566
    10.0791  10.1134  10.1452  10.1838  10.2092  10.2829  10.3210  10.3941
    10.8455  10.9057  10.9208  10.9794  11.5247  11.5840  11.8366  11.8967
    12.1222  12.1751  12.5026  12.5590  12.8522  12.8710  12.9014  12.9232
    13.0387  13.0581  13.0682  13.1170  13.1974  13.2090  13.3874  13.3945
    13.4644  13.4808  13.6851  13.7450  13.8917  13.9057  13.9579  13.9718

     occupation numbers 
     1.0000   1.0000   1.0000   1.0000   1.0000   1.0000   1.0000   1.0000
     1.0000   1.0000   1.0000   1.0000   1.0000   1.0000   1.0000   1.0000
     1.0000   1.0000   1.0000   1.0000   1.0000   1.0000   1.0000   1.0000
     1.0000   1.0000   1.0000   1.0000   1.0000   1.0000   1.0000   1.0000
     1.0000   1.0000   1.0000   1.0000   1.0000   1.0000   1.0000   1.0000
     1.0000   1.0000   1.0000   1.0000   1.0000   1.0000   1.0000   1.0000
     1.0000   1.0000   1.0000   1.0000   1.0000   1.0000   1.0000   1.0000
     1.0000   1.0000   1.0000   1.0000   1.0000   1.0000   1.0000   1.0000
     1.0000   1.0000   1.0000   1.0000   1.0000   1.0000   1.0000   1.0000
     1.0000   1.0000   1.0000   1.0000   1.0000   1.0000   1.0000   1.0000
     1.0000   1.0000   1.0000   1.0000   1.0000   1.0000   1.0000   1.0000
     1.0000   1.0000   1.0000   1.0000   1.0000   1.0000   1.0000   1.0000
     1.0000   1.0000   1.0000   1.0000   1.0000   1.0000   1.0000   1.0000
     1.0000   1.0000   1.0000   1.0000   1.0000   1.0000   1.0000   1.0000
     1.0000   1.0000   1.0000   1.0000   1.0000   1.0000   1.0000   1.0000
     1.0000   1.0000   1.0000   1.0000   1.0033   1.0043   1.0213   1.0260
     1.0417   1.0438   1.0464   1.0558   1.0710   1.0546   0.8320   0.7695
     0.5505   0.5388   0.0022   0.0019   0.0005   0.0004   0.0000   0.0000
     0.0000   0.0000   0.0000   0.0000   0.0000   0.0000   0.0000   0.0000
     0.0000   0.0000   0.0000   0.0000   0.0000   0.0000   0.0000   0.0000
     0.0000   0.0000   0.0000   0.0000   0.0000   0.0000   0.0000   0.0000
     0.0000   0.0000   0.0000   0.0000   0.0000   0.0000   0.0000   0.0000
     0.0000   0.0000   0.0000   0.0000   0.0000   0.0000   0.0000   0.0000
     0.0000   0.0000   0.0000   0.0000   0.0000   0.0000   0.0000   0.0000
     0.0000   0.0000   0.0000   0.0000   0.0000   0.0000   0.0000   0.0000

          k =-1.5806-0.9126 0.0837 ( 23485 PWs)   bands (ev):

   -75.0374 -74.9580 -70.2459 -70.1606 -44.1353 -44.0516 -43.7271 -43.6501
   -43.2270 -43.1433 -39.1783 -39.0986 -38.7704 -38.6851 -38.4260 -38.3463
   -17.0183 -17.0182 -16.9821 -16.9820 -16.9575 -16.9574 -16.9361 -16.9360
   -16.9332 -16.9332 -16.9231 -16.9230 -16.9149 -16.9148 -16.9137 -16.9136
   -13.9974 -13.9973 -13.9939 -13.9938 -13.9894 -13.9894 -13.9817 -13.9816
   -13.9766 -13.9765 -13.9678 -13.9678 -13.9563 -13.9562 -13.9512 -13.9511
   -13.9465 -13.9465 -13.9404 -13.9403 -13.9339 -13.9338 -13.9305 -13.9304
    -4.9518  -4.9493  -4.9269  -4.9250  -4.7503  -4.7459  -4.7106  -4.7064
    -3.4568  -3.4427  -3.2964  -3.2820  -3.0744  -3.0614  -2.8849  -2.8707
    -1.6709  -1.6675  -1.5596  -1.5557  -1.2857  -1.2839  -1.2227  -1.2158
     1.8570   1.9078   1.9362   1.9748   1.9879   2.0518   2.0619   2.0991
     2.1415   2.1798   3.3619   3.3739   3.4158   3.4242   3.8316   3.8415
     3.9574   3.9671   4.1295   4.1636   4.2597   4.2838   4.4937   4.5185
     4.5763   4.5993   5.0628   5.0718   5.1559   5.1578   5.2625   5.2693
     5.3258   5.3334   5.6818   5.6876   5.7806   5.7889   5.9343   5.9392
     6.0603   6.0726   6.2971   6.3109   6.3832   6.4015   6.4705   6.4850
     6.6517   6.6894   6.7751   6.7788   7.0443   7.0666   7.2119   7.2152
     7.3350   7.3734   8.3870   8.3941   8.4225   8.4268   9.0344   9.0388
     9.0574   9.0706   9.4434   9.4697   9.5710   9.5931   9.7792   9.7873
     9.8513   9.8633   9.9104   9.9423  10.1337  10.1600  10.2229  10.2318
    10.4018  10.4678  10.4753  10.4980  10.5532  10.5983  10.7179  10.7448
    11.0252  11.0701  11.2775  11.3214  11.5774  11.6145  11.9221  11.9427
    12.1045  12.1273  12.3406  12.3806  12.5474  12.5668  12.7852  12.8390
    13.4070  13.4194  13.4621  13.4938  13.6008  13.6073  13.6221  13.6562
    13.8277  13.8496  14.1230  14.1477  14.1946  14.2360  14.4175  14.4239

     occupation numbers 
     1.0000   1.0000   1.0000   1.0000   1.0000   1.0000   1.0000   1.0000
     1.0000   1.0000   1.0000   1.0000   1.0000   1.0000   1.0000   1.0000
     1.0000   1.0000   1.0000   1.0000   1.0000   1.0000   1.0000   1.0000
     1.0000   1.0000   1.0000   1.0000   1.0000   1.0000   1.0000   1.0000
     1.0000   1.0000   1.0000   1.0000   1.0000   1.0000   1.0000   1.0000
     1.0000   1.0000   1.0000   1.0000   1.0000   1.0000   1.0000   1.0000
     1.0000   1.0000   1.0000   1.0000   1.0000   1.0000   1.0000   1.0000
     1.0000   1.0000   1.0000   1.0000   1.0000   1.0000   1.0000   1.0000
     1.0000   1.0000   1.0000   1.0000   1.0000   1.0000   1.0000   1.0000
     1.0000   1.0000   1.0000   1.0000   1.0000   1.0000   1.0000   1.0000
     1.0000   1.0000   1.0000   1.0000   1.0000   1.0000   1.0000   1.0000
     1.0000   1.0000   1.0000   1.0000   1.0000   1.0000   1.0000   1.0000
     1.0000   1.0000   1.0000   1.0000   1.0000   1.0000   1.0000   1.0000
     1.0000   1.0000   1.0000   1.0000   1.0000   1.0000   1.0000   1.0000
     1.0000   1.0000   1.0000   1.0000   1.0000   1.0000   1.0000   1.0000
     1.0000   1.0000   1.0000   1.0000   1.0000   1.0000   1.0000   1.0000
     1.0001   1.0003   1.0012   1.0013   1.0366   1.0437   1.0832   1.0833
     1.0222   0.9684   0.0000   0.0000   0.0000   0.0000   0.0000   0.0000
     0.0000   0.0000   0.0000   0.0000   0.0000   0.0000   0.0000   0.0000
     0.0000   0.0000   0.0000   0.0000   0.0000   0.0000   0.0000   0.0000
     0.0000   0.0000   0.0000   0.0000   0.0000   0.0000   0.0000   0.0000
     0.0000   0.0000   0.0000   0.0000   0.0000   0.0000   0.0000   0.0000
     0.0000   0.0000   0.0000   0.0000   0.0000   0.0000   0.0000   0.0000
     0.0000   0.0000   0.0000   0.0000   0.0000   0.0000   0.0000   0.0000
     0.0000   0.0000   0.0000   0.0000   0.0000   0.0000   0.0000   0.0000

          k =-2.3709-1.3688 0.1255 ( 23499 PWs)   bands (ev):

   -75.0374 -74.9580 -70.2459 -70.1606 -44.1354 -44.0517 -43.7270 -43.6501
   -43.2271 -43.1435 -39.1784 -39.0987 -38.7703 -38.6850 -38.4262 -38.3464
   -17.0185 -17.0184 -16.9809 -16.9809 -16.9563 -16.9563 -16.9364 -16.9363
   -16.9320 -16.9319 -16.9221 -16.9220 -16.9151 -16.9151 -16.9138 -16.9137
   -14.0003 -14.0003 -13.9942 -13.9942 -13.9871 -13.9870 -13.9795 -13.9795
   -13.9777 -13.9777 -13.9649 -13.9648 -13.9574 -13.9574 -13.9527 -13.9527
   -13.9457 -13.9457 -13.9406 -13.9405 -13.9319 -13.9318 -13.9274 -13.9273
    -4.3443  -4.3412  -4.3311  -4.3282  -4.1733  -4.1687  -4.1550  -4.1493
    -3.1650  -3.1377  -3.1151  -3.0933  -2.9451  -2.9069  -2.8693  -2.8251
    -2.1268  -2.1217  -2.0543  -2.0477  -1.9051  -1.8988  -1.8517  -1.8424
     1.8124   1.8911   1.9106   1.9786   1.9910   2.0548   2.1178   2.1679
     2.1947   2.2469   2.8196   2.8268   2.9718   2.9846   3.2446   3.2502
     3.3885   3.4167   3.5229   3.5388   3.8492   3.8516   4.0509   4.0571
     4.4052   4.4063   4.5740   4.5784   4.7175   4.7224   4.8881   4.8884
     4.9711   4.9733   5.0576   5.0663   5.3302   5.3317   5.5155   5.5177
     5.7088   5.7207   5.8913   5.9105   6.0250   6.0490   6.1599   6.1781
     6.3309   6.3384   6.4625   6.5017   6.8803   6.8864   7.0837   7.0953
     7.2435   7.2788   8.3077   8.3129   8.5104   8.5150   8.8572   8.8684
     9.0527   9.0608   9.4232   9.4332   9.4906   9.5171   9.6174   9.6688
     9.8005   9.8249   9.8565   9.8809  10.1462  10.1526  10.3085  10.3219
    10.4319  10.4834  10.5601  10.6018  10.6635  10.6802  10.7895  10.7961
    11.1074  11.1604  11.2144  11.2322  11.5255  11.5355  11.7292  11.7415
    12.0517  12.0590  12.1146  12.1487  12.4642  12.5068  13.1495  13.1951
    13.5298  13.5422  13.8105  13.8399  14.1068  14.1352  14.3575  14.3850
    14.7404  14.7740  14.8176  14.8242  14.8818  14.8962  15.2224  15.2240

     occupation numbers 
     1.0000   1.0000   1.0000   1.0000   1.0000   1.0000   1.0000   1.0000
     1.0000   1.0000   1.0000   1.0000   1.0000   1.0000   1.0000   1.0000
     1.0000   1.0000   1.0000   1.0000   1.0000   1.0000   1.0000   1.0000
     1.0000   1.0000   1.0000   1.0000   1.0000   1.0000   1.0000   1.0000
     1.0000   1.0000   1.0000   1.0000   1.0000   1.0000   1.0000   1.0000
     1.0000   1.0000   1.0000   1.0000   1.0000   1.0000   1.0000   1.0000
     1.0000   1.0000   1.0000   1.0000   1.0000   1.0000   1.0000   1.0000
     1.0000   1.0000   1.0000   1.0000   1.0000   1.0000   1.0000   1.0000
     1.0000   1.0000   1.0000   1.0000   1.0000   1.0000   1.0000   1.0000
     1.0000   1.0000   1.0000   1.0000   1.0000   1.0000   1.0000   1.0000
     1.0000   1.0000   1.0000   1.0000   1.0000   1.0000   1.0000   1.0000
     1.0000   1.0000   1.0000   1.0000   1.0000   1.0000   1.0000   1.0000
     1.0000   1.0000   1.0000   1.0000   1.0000   1.0000   1.0000   1.0000
     1.0000   1.0000   1.0000   1.0000   1.0000   1.0000   1.0000   1.0000
     1.0000   1.0000   1.0000   1.0000   1.0000   1.0000   1.0000   1.0000
     1.0000   1.0000   1.0000   1.0000   1.0000   1.0000   1.0000   1.0000
     1.0000   1.0000   1.0000   1.0000   1.0060   1.0065   1.0495   1.0535
     1.0811   1.0689   0.0000   0.0000   0.0000   0.0000   0.0000   0.0000
     0.0000   0.0000   0.0000   0.0000   0.0000   0.0000   0.0000   0.0000
     0.0000   0.0000   0.0000   0.0000   0.0000   0.0000   0.0000   0.0000
     0.0000   0.0000   0.0000   0.0000   0.0000   0.0000   0.0000   0.0000
     0.0000   0.0000   0.0000   0.0000   0.0000   0.0000   0.0000   0.0000
     0.0000   0.0000   0.0000   0.0000   0.0000   0.0000   0.0000   0.0000
     0.0000   0.0000   0.0000   0.0000   0.0000   0.0000   0.0000   0.0000
     0.0000   0.0000   0.0000   0.0000   0.0000   0.0000   0.0000   0.0000

          k = 3.1612 1.8251-0.1674 ( 23516 PWs)   bands (ev):

   -75.0374 -74.9580 -70.2459 -70.1606 -44.1355 -44.0517 -43.7270 -43.6501
   -43.2272 -43.1435 -39.1785 -39.0988 -38.7703 -38.6850 -38.4263 -38.3465
   -17.0185 -17.0185 -16.9804 -16.9804 -16.9559 -16.9559 -16.9365 -16.9365
   -16.9315 -16.9315 -16.9217 -16.9217 -16.9152 -16.9152 -16.9138 -16.9138
   -14.0016 -14.0016 -13.9945 -13.9945 -13.9865 -13.9864 -13.9787 -13.9787
   -13.9777 -13.9777 -13.9635 -13.9635 -13.9581 -13.9581 -13.9536 -13.9536
   -13.9456 -13.9456 -13.9401 -13.9401 -13.9310 -13.9309 -13.9259 -13.9259
    -3.8342  -3.8299  -3.8242  -3.8209  -3.7815  -3.7798  -3.7711  -3.7639
    -3.1825  -3.1815  -3.1736  -3.1431  -3.0706  -3.0618  -3.0132  -2.9768
    -2.3827  -2.3729  -2.3399  -2.3329  -2.1837  -2.1737  -2.1540  -2.1425
     1.7497   1.8268   1.9027   1.9589   1.9830   2.0343   2.1790   2.2598
     2.2764   2.3533   2.5879   2.5989   2.6946   2.7146   2.9761   2.9897
     3.1195   3.1555   3.6054   3.6338   3.6988   3.7179   4.0402   4.0542
     4.0624   4.0774   4.5529   4.5648   4.5706   4.5829   4.7352   4.7479
     4.7511   4.7661   4.8889   4.9060   4.9402   4.9664   5.3877   5.3954
     5.4486   5.4577   5.8748   5.8990   5.9070   5.9234   6.0972   6.1177
     6.3199   6.3398   6.4150   6.4326   6.7042   6.7053   7.0435   7.0670
     7.1663   7.2124   8.2287   8.2454   8.4058   8.4196   8.8366   8.8520
     8.9140   8.9197   9.2989   9.3221   9.5129   9.5334   9.6684   9.7035
     9.7392   9.7589   9.8161   9.8326  10.0961  10.0971  10.2534  10.2927
    10.4463  10.4926  10.5265  10.5614  10.6133  10.6704  10.6821  10.7122
    11.1326  11.1881  11.3068  11.3252  11.5163  11.5557  11.7075  11.7118
    11.7304  11.7511  12.0981  12.1360  12.5068  12.5543  13.1314  13.1777
    13.5907  13.5959  13.7734  13.7739  14.2583  14.3075  14.4517  14.4856
    14.7049  14.7471  14.8929  14.9476  15.5607  15.6046  15.7416  15.7560

     occupation numbers 
     1.0000   1.0000   1.0000   1.0000   1.0000   1.0000   1.0000   1.0000
     1.0000   1.0000   1.0000   1.0000   1.0000   1.0000   1.0000   1.0000
     1.0000   1.0000   1.0000   1.0000   1.0000   1.0000   1.0000   1.0000
     1.0000   1.0000   1.0000   1.0000   1.0000   1.0000   1.0000   1.0000
     1.0000   1.0000   1.0000   1.0000   1.0000   1.0000   1.0000   1.0000
     1.0000   1.0000   1.0000   1.0000   1.0000   1.0000   1.0000   1.0000
     1.0000   1.0000   1.0000   1.0000   1.0000   1.0000   1.0000   1.0000
     1.0000   1.0000   1.0000   1.0000   1.0000   1.0000   1.0000   1.0000
     1.0000   1.0000   1.0000   1.0000   1.0000   1.0000   1.0000   1.0000
     1.0000   1.0000   1.0000   1.0000   1.0000   1.0000   1.0000   1.0000
     1.0000   1.0000   1.0000   1.0000   1.0000   1.0000   1.0000   1.0000
     1.0000   1.0000   1.0000   1.0000   1.0000   1.0000   1.0000   1.0000
     1.0000   1.0000   1.0000   1.0000   1.0000   1.0000   1.0000   1.0000
     1.0000   1.0000   1.0000   1.0000   1.0000   1.0000   1.0000   1.0000
     1.0000   1.0000   1.0000   1.0000   1.0000   1.0000   1.0000   1.0000
     1.0000   1.0000   1.0000   1.0000   1.0000   1.0000   1.0000   1.0000
     1.0000   1.0000   1.0000   1.0000   1.0004   1.0004   1.0364   1.0439
     1.0761   1.0832   0.0001   0.0000   0.0000   0.0000   0.0000   0.0000
     0.0000   0.0000   0.0000   0.0000   0.0000   0.0000   0.0000   0.0000
     0.0000   0.0000   0.0000   0.0000   0.0000   0.0000   0.0000   0.0000
     0.0000   0.0000   0.0000   0.0000   0.0000   0.0000   0.0000   0.0000
     0.0000   0.0000   0.0000   0.0000   0.0000   0.0000   0.0000   0.0000
     0.0000   0.0000   0.0000   0.0000   0.0000   0.0000   0.0000   0.0000
     0.0000   0.0000   0.0000   0.0000   0.0000   0.0000   0.0000   0.0000
     0.0000   0.0000   0.0000   0.0000   0.0000   0.0000   0.0000   0.0000

          k =-0.7903 0.4563 0.0837 ( 23454 PWs)   bands (ev):

   -75.0374 -74.9580 -70.2459 -70.1606 -44.1352 -44.0515 -43.7271 -43.6501
   -43.2269 -43.1432 -39.1781 -39.0984 -38.7704 -38.6851 -38.4258 -38.3461
   -17.0181 -17.0180 -16.9831 -16.9831 -16.9585 -16.9585 -16.9357 -16.9357
   -16.9344 -16.9344 -16.9241 -16.9241 -16.9146 -16.9146 -16.9135 -16.9134
   -13.9955 -13.9955 -13.9937 -13.9936 -13.9922 -13.9922 -13.9832 -13.9831
   -13.9747 -13.9747 -13.9704 -13.9703 -13.9562 -13.9562 -13.9520 -13.9520
   -13.9459 -13.9459 -13.9387 -13.9387 -13.9362 -13.9361 -13.9325 -13.9324
    -5.3501  -5.3477  -5.3211  -5.3197  -5.1375  -5.1332  -5.0911  -5.0873
    -3.7238  -3.7093  -3.5234  -3.5077  -3.2551  -3.2506  -3.0024  -2.9971
    -1.5004  -1.4972  -1.2144  -1.2118  -0.9083  -0.9054  -0.6882  -0.6863
     1.8359   1.8700   1.9072   1.9162   1.9500   1.9834   2.0769   2.0946
     2.1579   2.1755   3.9386   3.9498   3.9988   4.0154   4.4260   4.4421
     4.4439   4.4578   4.8929   4.9324   4.9748   5.0110   5.3238   5.3490
     5.4458   5.4586   5.6277   5.6305   5.7420   5.7651   5.7992   5.8138
     5.8956   5.9223   6.2368   6.2456   6.3543   6.3683   6.3928   6.4207
     6.4864   6.4937   6.5826   6.6065   6.8625   6.8835   6.9943   7.0016
     7.0069   7.0218   7.0655   7.0852   7.2870   7.3167   7.4557   7.4828
     7.5502   7.5548   8.0250   8.0311   8.1476   8.1579   8.5336   8.5383
     8.6787   8.6842   9.2750   9.3064   9.4806   9.4920   9.6300   9.6373
     9.6832   9.6913   9.8373   9.8516   9.9400   9.9621  10.0413  10.0466
    10.0709  10.1075  10.1554  10.1860  10.2121  10.2830  10.3211  10.3942
    10.8449  10.9067  10.9188  10.9789  11.5252  11.5846  11.8372  11.8983
    12.1173  12.1709  12.5063  12.5644  12.8530  12.8625  12.8936  12.9098
    13.0407  13.0577  13.0776  13.1210  13.1967  13.2133  13.4093  13.4257
    13.4729  13.4802  13.6828  13.7433  13.8691  13.8792  13.9448  13.9580

     occupation numbers 
     1.0000   1.0000   1.0000   1.0000   1.0000   1.0000   1.0000   1.0000
     1.0000   1.0000   1.0000   1.0000   1.0000   1.0000   1.0000   1.0000
     1.0000   1.0000   1.0000   1.0000   1.0000   1.0000   1.0000   1.0000
     1.0000   1.0000   1.0000   1.0000   1.0000   1.0000   1.0000   1.0000
     1.0000   1.0000   1.0000   1.0000   1.0000   1.0000   1.0000   1.0000
     1.0000   1.0000   1.0000   1.0000   1.0000   1.0000   1.0000   1.0000
     1.0000   1.0000   1.0000   1.0000   1.0000   1.0000   1.0000   1.0000
     1.0000   1.0000   1.0000   1.0000   1.0000   1.0000   1.0000   1.0000
     1.0000   1.0000   1.0000   1.0000   1.0000   1.0000   1.0000   1.0000
     1.0000   1.0000   1.0000   1.0000   1.0000   1.0000   1.0000   1.0000
     1.0000   1.0000   1.0000   1.0000   1.0000   1.0000   1.0000   1.0000
     1.0000   1.0000   1.0000   1.0000   1.0000   1.0000   1.0000   1.0000
     1.0000   1.0000   1.0000   1.0000   1.0000   1.0000   1.0000   1.0000
     1.0000   1.0000   1.0000   1.0000   1.0000   1.0000   1.0000   1.0000
     1.0000   1.0000   1.0000   1.0000   1.0000   1.0000   1.0000   1.0000
     1.0000   1.0000   1.0000   1.0000   1.0047   1.0063   1.0231   1.0249
     1.0262   1.0301   1.0434   1.0500   1.0643   1.0415   0.7957   0.7259
     0.5409   0.5285   0.0031   0.0028   0.0003   0.0003   0.0000   0.0000
     0.0000   0.0000   0.0000   0.0000   0.0000   0.0000   0.0000   0.0000
     0.0000   0.0000   0.0000   0.0000   0.0000   0.0000   0.0000   0.0000
     0.0000   0.0000   0.0000   0.0000   0.0000   0.0000   0.0000   0.0000
     0.0000   0.0000   0.0000   0.0000   0.0000   0.0000   0.0000   0.0000
     0.0000   0.0000   0.0000   0.0000   0.0000   0.0000   0.0000   0.0000
     0.0000   0.0000   0.0000   0.0000   0.0000   0.0000   0.0000   0.0000
     0.0000   0.0000   0.0000   0.0000   0.0000   0.0000   0.0000   0.0000

          k =-1.5806 0.0000 0.1255 ( 23434 PWs)   bands (ev):

   -75.0374 -74.9580 -70.2459 -70.1606 -44.1353 -44.0515 -43.7271 -43.6501
   -43.2270 -43.1433 -39.1782 -39.0985 -38.7704 -38.6851 -38.4259 -38.3462
   -17.0182 -17.0181 -16.9823 -16.9822 -16.9577 -16.9576 -16.9361 -16.9356
   -16.9336 -16.9335 -16.9234 -16.9231 -16.9148 -16.9147 -16.9136 -16.9135
   -13.9972 -13.9961 -13.9937 -13.9920 -13.9913 -13.9907 -13.9823 -13.9819
   -13.9761 -13.9759 -13.9688 -13.9685 -13.9563 -13.9559 -13.9505 -13.9503
   -13.9473 -13.9468 -13.9399 -13.9398 -13.9346 -13.9342 -13.9313 -13.9312
    -5.0818  -5.0793  -5.0560  -5.0543  -4.8757  -4.8714  -4.8346  -4.8305
    -3.5383  -3.5243  -3.3633  -3.3485  -3.1272  -3.1173  -2.9134  -2.9025
    -1.6075  -1.6043  -1.4259  -1.4219  -1.1700  -1.1671  -1.0465  -1.0419
     1.8658   1.9056   1.9372   1.9457   1.9854   2.0139   2.0751   2.0911
     2.1558   2.1715   3.5872   3.6045   3.6872   3.6993   3.9329   3.9401
     4.1082   4.1106   4.3171   4.3474   4.4628   4.4698   4.5855   4.6118
     4.6684   4.6775   5.0703   5.0822   5.2095   5.2208   5.3948   5.3976
     5.6532   5.6601   5.7483   5.7520   5.8720   5.8976   6.0639   6.0703
     6.2388   6.2471   6.3034   6.3252   6.5417   6.5519   6.6865   6.6912
     6.8047   6.8268   6.9208   6.9392   7.1043   7.1086   7.2650   7.2770
     7.4281   7.4556   8.4307   8.4495   8.5859   8.6042   8.6915   8.7104
     8.8222   8.8474   9.5442   9.5495   9.6804   9.7035   9.8301   9.8493
     9.9298   9.9372  10.0754  10.1266  10.1503  10.1742  10.1894  10.2231
    10.2520  10.2694  10.2909  10.3086  10.5599  10.6079  10.6646  10.6771
    10.9054  10.9665  11.1207  11.1771  11.7043  11.7625  12.1919  12.2291
    12.3971  12.4001  12.5041  12.5301  12.5870  12.6025  12.6623  12.6802
    12.8124  12.8181  13.0526  13.0568  13.1726  13.1800  13.4935  13.5011
    13.6110  13.6303  13.6518  13.6556  13.9062  13.9113  14.0198  14.0270

     occupation numbers 
     1.0000   1.0000   1.0000   1.0000   1.0000   1.0000   1.0000   1.0000
     1.0000   1.0000   1.0000   1.0000   1.0000   1.0000   1.0000   1.0000
     1.0000   1.0000   1.0000   1.0000   1.0000   1.0000   1.0000   1.0000
     1.0000   1.0000   1.0000   1.0000   1.0000   1.0000   1.0000   1.0000
     1.0000   1.0000   1.0000   1.0000   1.0000   1.0000   1.0000   1.0000
     1.0000   1.0000   1.0000   1.0000   1.0000   1.0000   1.0000   1.0000
     1.0000   1.0000   1.0000   1.0000   1.0000   1.0000   1.0000   1.0000
     1.0000   1.0000   1.0000   1.0000   1.0000   1.0000   1.0000   1.0000
     1.0000   1.0000   1.0000   1.0000   1.0000   1.0000   1.0000   1.0000
     1.0000   1.0000   1.0000   1.0000   1.0000   1.0000   1.0000   1.0000
     1.0000   1.0000   1.0000   1.0000   1.0000   1.0000   1.0000   1.0000
     1.0000   1.0000   1.0000   1.0000   1.0000   1.0000   1.0000   1.0000
     1.0000   1.0000   1.0000   1.0000   1.0000   1.0000   1.0000   1.0000
     1.0000   1.0000   1.0000   1.0000   1.0000   1.0000   1.0000   1.0000
     1.0000   1.0000   1.0000   1.0000   1.0000   1.0000   1.0000   1.0000
     1.0000   1.0000   1.0000   1.0000   1.0000   1.0000   1.0003   1.0003
     1.0020   1.0028   1.0102   1.0127   1.0566   1.0581   1.0751   1.0698
     0.8613   0.7959   0.0000   0.0000   0.0000   0.0000   0.0000   0.0000
     0.0000   0.0000   0.0000   0.0000   0.0000   0.0000   0.0000   0.0000
     0.0000   0.0000   0.0000   0.0000   0.0000   0.0000   0.0000   0.0000
     0.0000   0.0000   0.0000   0.0000   0.0000   0.0000   0.0000   0.0000
     0.0000   0.0000   0.0000   0.0000   0.0000   0.0000   0.0000   0.0000
     0.0000   0.0000   0.0000   0.0000   0.0000   0.0000   0.0000   0.0000
     0.0000   0.0000   0.0000   0.0000   0.0000   0.0000   0.0000   0.0000
     0.0000   0.0000   0.0000   0.0000   0.0000   0.0000   0.0000   0.0000

          k =-2.3709-0.4563 0.1674 ( 23496 PWs)   bands (ev):

   -75.0374 -74.9580 -70.2459 -70.1606 -44.1354 -44.0517 -43.7270 -43.6501
   -43.2271 -43.1434 -39.1784 -39.0987 -38.7703 -38.6850 -38.4261 -38.3464
   -17.0186 -17.0182 -16.9813 -16.9812 -16.9567 -16.9565 -16.9365 -16.9358
   -16.9326 -16.9323 -16.9226 -16.9220 -16.9153 -16.9148 -16.9139 -16.9136
   -13.9998 -13.9983 -13.9940 -13.9920 -13.9890 -13.9878 -13.9805 -13.9804
   -13.9778 -13.9773 -13.9662 -13.9660 -13.9571 -13.9563 -13.9510 -13.9503
   -13.9474 -13.9467 -13.9408 -13.9406 -13.9325 -13.9322 -13.9290 -13.9290
    -4.5722  -4.5694  -4.5538  -4.5515  -4.3846  -4.3802  -4.3565  -4.3517
    -3.2412  -3.2237  -3.1394  -3.1241  -2.9435  -2.9175  -2.8279  -2.7986
    -1.9148  -1.9103  -1.8995  -1.8940  -1.6922  -1.6859  -1.6806  -1.6621
     1.8641   1.9115   1.9431   1.9911   2.0007   2.0712   2.0783   2.1364
     2.1497   2.2163   3.1363   3.1624   3.1708   3.1869   3.4430   3.4745
     3.5483   3.5802   3.7700   3.7787   3.8374   3.8427   4.1122   4.1195
     4.1484   4.1607   4.5165   4.5361   4.5669   4.5862   4.8572   4.8651
     5.0409   5.0481   5.3100   5.3184   5.4188   5.4246   5.6178   5.6244
     5.6872   5.6964   5.9541   5.9638   6.1462   6.1563   6.3501   6.3572
     6.5680   6.5909   6.7137   6.7309   6.8317   6.8388   7.0326   7.0639
     7.3143   7.3437   8.5291   8.5419   8.6802   8.6835   8.9244   8.9315
     9.0470   9.0501   9.5646   9.5886   9.7263   9.7347   9.8935   9.9156
     9.9838  10.0327  10.0846  10.1032  10.2027  10.2082  10.3450  10.3652
    10.4227  10.4683  10.5208  10.5364  10.6190  10.6731  10.9091  10.9256
    11.0655  11.1151  11.3597  11.4106  11.9072  11.9471  12.0602  12.0773
    12.1679  12.1813  12.4720  12.4872  12.6302  12.6325  12.8635  12.9058
    13.1655  13.1783  13.2598  13.2696  13.6345  13.6690  13.7269  13.7334
    14.1215  14.1299  14.1771  14.1908  14.3561  14.3597  14.4099  14.4211

     occupation numbers 
     1.0000   1.0000   1.0000   1.0000   1.0000   1.0000   1.0000   1.0000
     1.0000   1.0000   1.0000   1.0000   1.0000   1.0000   1.0000   1.0000
     1.0000   1.0000   1.0000   1.0000   1.0000   1.0000   1.0000   1.0000
     1.0000   1.0000   1.0000   1.0000   1.0000   1.0000   1.0000   1.0000
     1.0000   1.0000   1.0000   1.0000   1.0000   1.0000   1.0000   1.0000
     1.0000   1.0000   1.0000   1.0000   1.0000   1.0000   1.0000   1.0000
     1.0000   1.0000   1.0000   1.0000   1.0000   1.0000   1.0000   1.0000
     1.0000   1.0000   1.0000   1.0000   1.0000   1.0000   1.0000   1.0000
     1.0000   1.0000   1.0000   1.0000   1.0000   1.0000   1.0000   1.0000
     1.0000   1.0000   1.0000   1.0000   1.0000   1.0000   1.0000   1.0000
     1.0000   1.0000   1.0000   1.0000   1.0000   1.0000   1.0000   1.0000
     1.0000   1.0000   1.0000   1.0000   1.0000   1.0000   1.0000   1.0000
     1.0000   1.0000   1.0000   1.0000   1.0000   1.0000   1.0000   1.0000
     1.0000   1.0000   1.0000   1.0000   1.0000   1.0000   1.0000   1.0000
     1.0000   1.0000   1.0000   1.0000   1.0000   1.0000   1.0000   1.0000
     1.0000   1.0000   1.0000   1.0000   1.0000   1.0000   1.0000   1.0000
     1.0000   1.0000   1.0004   1.0006   1.0030   1.0033   1.0331   1.0429
     1.0438   1.0116   0.0000   0.0000   0.0000   0.0000   0.0000   0.0000
     0.0000   0.0000   0.0000   0.0000   0.0000   0.0000   0.0000   0.0000
     0.0000   0.0000   0.0000   0.0000   0.0000   0.0000   0.0000   0.0000
     0.0000   0.0000   0.0000   0.0000   0.0000   0.0000   0.0000   0.0000
     0.0000   0.0000   0.0000   0.0000   0.0000   0.0000   0.0000   0.0000
     0.0000   0.0000   0.0000   0.0000   0.0000   0.0000   0.0000   0.0000
     0.0000   0.0000   0.0000   0.0000   0.0000   0.0000   0.0000   0.0000
     0.0000   0.0000   0.0000   0.0000   0.0000   0.0000   0.0000   0.0000

          k = 3.1612 2.7377-0.1255 ( 23533 PWs)   bands (ev):

   -75.0374 -74.9580 -70.2459 -70.1606 -44.1355 -44.0517 -43.7270 -43.6501
   -43.2272 -43.1435 -39.1785 -39.0988 -38.7703 -38.6850 -38.4263 -38.3465
   -17.0188 -17.0182 -16.9806 -16.9804 -16.9560 -16.9558 -16.9367 -16.9360
   -16.9320 -16.9314 -16.9220 -16.9212 -16.9155 -16.9149 -16.9142 -16.9136
   -14.0015 -13.9999 -13.9944 -13.9927 -13.9875 -13.9860 -13.9795 -13.9788
   -13.9786 -13.9779 -13.9642 -13.9641 -13.9579 -13.9567 -13.9530 -13.9515
   -13.9465 -13.9463 -13.9408 -13.9405 -13.9311 -13.9309 -13.9270 -13.9268
    -3.9258  -3.9213  -3.9201  -3.9172  -3.8002  -3.7973  -3.7944  -3.7873
    -3.1049  -3.0903  -3.0235  -3.0096  -2.9929  -2.9879  -2.8966  -2.8650
    -2.3818  -2.3716  -2.3709  -2.3641  -2.2228  -2.2206  -2.2153  -2.1954
     1.8072   1.8854   1.9110   1.9901   1.9918   2.0684   2.1279   2.2068
     2.2250   2.3028   2.7215   2.7270   2.8647   2.8783   3.1234   3.1264
     3.1689   3.1970   3.4936   3.5064   3.7397   3.7446   3.8163   3.8222
     3.8590   3.8703   4.1764   4.1861   4.3252   4.3314   4.6134   4.6239
     4.7415   4.7451   4.8969   4.8980   5.1152   5.1348   5.1677   5.1895
     5.5378   5.5415   5.7840   5.7902   5.8898   5.9012   6.0735   6.0827
     6.3136   6.3361   6.4271   6.4394   6.7146   6.7330   6.9084   6.9348
     7.1694   7.2025   8.6095   8.6102   8.7731   8.7803   8.8562   8.8673
     9.0353   9.0380   9.4714   9.4803   9.5858   9.6027   9.8114   9.8411
     9.9153   9.9707  10.0710  10.0983  10.1720  10.1890  10.3934  10.4107
    10.4516  10.4940  10.5190  10.5648  10.7215  10.7350  10.9036  10.9153
    11.0850  11.1323  11.4216  11.4558  11.7865  11.8136  11.9432  11.9556
    12.1482  12.1651  12.3709  12.3847  12.5428  12.5715  13.0894  13.1353
    13.5763  13.5853  13.7390  13.7472  14.3463  14.3725  14.4769  14.4841
    14.7975  14.8127  14.9011  14.9080  14.9708  14.9843  15.2341  15.2711

     occupation numbers 
     1.0000   1.0000   1.0000   1.0000   1.0000   1.0000   1.0000   1.0000
     1.0000   1.0000   1.0000   1.0000   1.0000   1.0000   1.0000   1.0000
     1.0000   1.0000   1.0000   1.0000   1.0000   1.0000   1.0000   1.0000
     1.0000   1.0000   1.0000   1.0000   1.0000   1.0000   1.0000   1.0000
     1.0000   1.0000   1.0000   1.0000   1.0000   1.0000   1.0000   1.0000
     1.0000   1.0000   1.0000   1.0000   1.0000   1.0000   1.0000   1.0000
     1.0000   1.0000   1.0000   1.0000   1.0000   1.0000   1.0000   1.0000
     1.0000   1.0000   1.0000   1.0000   1.0000   1.0000   1.0000   1.0000
     1.0000   1.0000   1.0000   1.0000   1.0000   1.0000   1.0000   1.0000
     1.0000   1.0000   1.0000   1.0000   1.0000   1.0000   1.0000   1.0000
     1.0000   1.0000   1.0000   1.0000   1.0000   1.0000   1.0000   1.0000
     1.0000   1.0000   1.0000   1.0000   1.0000   1.0000   1.0000   1.0000
     1.0000   1.0000   1.0000   1.0000   1.0000   1.0000   1.0000   1.0000
     1.0000   1.0000   1.0000   1.0000   1.0000   1.0000   1.0000   1.0000
     1.0000   1.0000   1.0000   1.0000   1.0000   1.0000   1.0000   1.0000
     1.0000   1.0000   1.0000   1.0000   1.0000   1.0000   1.0000   1.0000
     1.0000   1.0000   1.0000   1.0000   1.0004   1.0006   1.0087   1.0120
     1.0768   1.0825   0.0000   0.0000   0.0000   0.0000   0.0000   0.0000
     0.0000   0.0000   0.0000   0.0000   0.0000   0.0000   0.0000   0.0000
     0.0000   0.0000   0.0000   0.0000   0.0000   0.0000   0.0000   0.0000
     0.0000   0.0000   0.0000   0.0000   0.0000   0.0000   0.0000   0.0000
     0.0000   0.0000   0.0000   0.0000   0.0000   0.0000   0.0000   0.0000
     0.0000   0.0000   0.0000   0.0000   0.0000   0.0000   0.0000   0.0000
     0.0000   0.0000   0.0000   0.0000   0.0000   0.0000   0.0000   0.0000
     0.0000   0.0000   0.0000   0.0000   0.0000   0.0000   0.0000   0.0000

          k = 2.3709 2.2814-0.0837 ( 23533 PWs)   bands (ev):

   -75.0374 -74.9580 -70.2459 -70.1606 -44.1355 -44.0517 -43.7270 -43.6501
   -43.2272 -43.1435 -39.1785 -39.0988 -38.7703 -38.6850 -38.4263 -38.3465
   -17.0188 -17.0182 -16.9806 -16.9804 -16.9560 -16.9558 -16.9367 -16.9360
   -16.9320 -16.9314 -16.9220 -16.9212 -16.9156 -16.9149 -16.9142 -16.9136
   -14.0015 -13.9999 -13.9944 -13.9927 -13.9876 -13.9860 -13.9796 -13.9788
   -13.9785 -13.9779 -13.9642 -13.9641 -13.9579 -13.9567 -13.9530 -13.9515
   -13.9465 -13.9463 -13.9408 -13.9405 -13.9311 -13.9309 -13.9270 -13.9268
    -3.9264  -3.9219  -3.9199  -3.9162  -3.8008  -3.7964  -3.7950  -3.7872
    -3.1034  -3.0882  -3.0270  -3.0161  -2.9915  -2.9845  -2.8955  -2.8640
    -2.3881  -2.3788  -2.3650  -2.3563  -2.2236  -2.2192  -2.2163  -2.1957
     1.8072   1.8854   1.9110   1.9901   1.9918   2.0684   2.1280   2.2069
     2.2250   2.3028   2.7304   2.7364   2.8470   2.8597   3.1277   3.1360
     3.1687   3.2021   3.5118   3.5271   3.7171   3.7264   3.8105   3.8157
     3.8644   3.8729   4.1552   4.1632   4.3336   4.3386   4.6290   4.6392
     4.7740   4.7798   4.9153   4.9178   5.0914   5.1035   5.1368   5.1532
     5.5149   5.5194   5.8033   5.8111   5.9148   5.9362   6.0263   6.0408
     6.3366   6.3624   6.4855   6.4964   6.6784   6.6970   6.8724   6.9033
     7.1804   7.2114   8.6088   8.6125   8.7727   8.7865   8.8738   8.8851
     9.0313   9.0377   9.4407   9.4501   9.5871   9.5998   9.8074   9.8348
     9.9359   9.9832  10.0761  10.1050  10.2177  10.2317  10.3795  10.3865
    10.4442  10.4775  10.5104  10.5584  10.6583  10.6874  10.9483  10.9693
    11.0884  11.1351  11.4201  11.4617  11.7610  11.7923  11.9604  11.9698
    12.1580  12.1722  12.3568  12.3690  12.5648  12.5942  13.0796  13.1273
    13.5545  13.5638  13.7413  13.7516  14.3388  14.3666  14.4752  14.4826
    14.8347  14.8370  14.9082  14.9136  14.9640  14.9855  15.2660  15.3040

     occupation numbers 
     1.0000   1.0000   1.0000   1.0000   1.0000   1.0000   1.0000   1.0000
     1.0000   1.0000   1.0000   1.0000   1.0000   1.0000   1.0000   1.0000
     1.0000   1.0000   1.0000   1.0000   1.0000   1.0000   1.0000   1.0000
     1.0000   1.0000   1.0000   1.0000   1.0000   1.0000   1.0000   1.0000
     1.0000   1.0000   1.0000   1.0000   1.0000   1.0000   1.0000   1.0000
     1.0000   1.0000   1.0000   1.0000   1.0000   1.0000   1.0000   1.0000
     1.0000   1.0000   1.0000   1.0000   1.0000   1.0000   1.0000   1.0000
     1.0000   1.0000   1.0000   1.0000   1.0000   1.0000   1.0000   1.0000
     1.0000   1.0000   1.0000   1.0000   1.0000   1.0000   1.0000   1.0000
     1.0000   1.0000   1.0000   1.0000   1.0000   1.0000   1.0000   1.0000
     1.0000   1.0000   1.0000   1.0000   1.0000   1.0000   1.0000   1.0000
     1.0000   1.0000   1.0000   1.0000   1.0000   1.0000   1.0000   1.0000
     1.0000   1.0000   1.0000   1.0000   1.0000   1.0000   1.0000   1.0000
     1.0000   1.0000   1.0000   1.0000   1.0000   1.0000   1.0000   1.0000
     1.0000   1.0000   1.0000   1.0000   1.0000   1.0000   1.0000   1.0000
     1.0000   1.0000   1.0000   1.0000   1.0000   1.0000   1.0000   1.0000
     1.0000   1.0000   1.0000   1.0000   1.0002   1.0003   1.0054   1.0081
     1.0792   1.0832   0.0000   0.0000   0.0000   0.0000   0.0000   0.0000
     0.0000   0.0000   0.0000   0.0000   0.0000   0.0000   0.0000   0.0000
     0.0000   0.0000   0.0000   0.0000   0.0000   0.0000   0.0000   0.0000
     0.0000   0.0000   0.0000   0.0000   0.0000   0.0000   0.0000   0.0000
     0.0000   0.0000   0.0000   0.0000   0.0000   0.0000   0.0000   0.0000
     0.0000   0.0000   0.0000   0.0000   0.0000   0.0000   0.0000   0.0000
     0.0000   0.0000   0.0000   0.0000   0.0000   0.0000   0.0000   0.0000
     0.0000   0.0000   0.0000   0.0000   0.0000   0.0000   0.0000   0.0000

          k = 1.5806 1.8251-0.0418 ( 23491 PWs)   bands (ev):

   -75.0374 -74.9580 -70.2459 -70.1606 -44.1354 -44.0517 -43.7270 -43.6501
   -43.2271 -43.1434 -39.1784 -39.0987 -38.7703 -38.6850 -38.4261 -38.3464
   -17.0186 -17.0181 -16.9813 -16.9811 -16.9567 -16.9565 -16.9365 -16.9358
   -16.9326 -16.9323 -16.9226 -16.9220 -16.9153 -16.9148 -16.9139 -16.9136
[...]
     1.0000   1.0000   1.0000   1.0000   1.0000   1.0000   1.0000   1.0000
     1.0000   1.0000   1.0000   1.0000   1.0000   1.0000   1.0000   1.0000
     1.0000   1.0000   1.0000   1.0000   1.0000   1.0000   1.0000   1.0000
     1.0000   1.0000   1.0000   1.0000   1.0000   1.0000   1.0000   1.0000
     1.0000   1.0000   1.0000   1.0000   1.0000   1.0000   1.0000   1.0000
     1.0000   1.0000   1.0000   1.0000   1.0000   1.0000   1.0000   1.0000
     1.0000   1.0000   1.0000   1.0000   1.0000   1.0000   1.0000   1.0000
     1.0000   1.0000   1.0000   1.0000   1.0000   1.0000   1.0000   1.0000
     1.0000   1.0000   1.0000   1.0000   1.0000   1.0000   1.0000   1.0000
     1.0000   1.0000   1.0002   1.0003   1.0019   1.0022   1.0082   1.0094
     1.0370   1.0399   1.0709   1.0746   1.0477   1.0222   0.8807   0.8714
     0.5482   0.5223   0.0024   0.0024   0.0004   0.0004   0.0000   0.0000
     0.0000   0.0000   0.0000   0.0000   0.0000   0.0000   0.0000   0.0000
     0.0000   0.0000   0.0000   0.0000   0.0000   0.0000   0.0000   0.0000
     0.0000   0.0000   0.0000   0.0000   0.0000   0.0000   0.0000   0.0000
     0.0000   0.0000   0.0000   0.0000   0.0000   0.0000   0.0000   0.0000
     0.0000   0.0000   0.0000   0.0000   0.0000   0.0000   0.0000   0.0000
     0.0000   0.0000   0.0000   0.0000   0.0000   0.0000   0.0000   0.0000
     0.0000   0.0000   0.0000   0.0000   0.0000   0.0000   0.0000   0.0000

          k = 4.7418 2.7377 0.1255 ( 23475 PWs)   bands (ev):

   -75.0374 -74.9580 -70.2459 -70.1606 -44.1353 -44.0516 -43.7271 -43.6501
   -43.2270 -43.1433 -39.1783 -39.0986 -38.7704 -38.6851 -38.4260 -38.3463
   -17.0183 -17.0182 -16.9820 -16.9819 -16.9574 -16.9573 -16.9361 -16.9360
   -16.9332 -16.9331 -16.9231 -16.9230 -16.9149 -16.9148 -16.9137 -16.9136
   -13.9974 -13.9973 -13.9939 -13.9938 -13.9894 -13.9893 -13.9817 -13.9816
   -13.9766 -13.9765 -13.9678 -13.9677 -13.9563 -13.9562 -13.9512 -13.9511
   -13.9465 -13.9464 -13.9404 -13.9403 -13.9339 -13.9338 -13.9304 -13.9304
    -4.9447  -4.9397  -4.9368  -4.9358  -4.7302  -4.7292  -4.7283  -4.7219
    -3.4289  -3.3914  -3.3757  -3.3393  -3.0069  -2.9710  -2.9488  -2.9101
    -1.6474  -1.6432  -1.5856  -1.5828  -1.2780  -1.2774  -1.2260  -1.2182
     1.8571   1.9078   1.9362   1.9748   1.9879   2.0519   2.0618   2.0991
     2.1415   2.1798   3.3270   3.3331   3.5114   3.5184   3.6798   3.6886
     4.0738   4.0903   4.1512   4.1593   4.2689   4.2905   4.4806   4.4959
     4.5625   4.5774   5.0249   5.0281   5.1627   5.1794   5.2454   5.2535
     5.3108   5.3143   5.7787   5.7842   5.8149   5.8181   5.9436   5.9567
     6.0685   6.0817   6.2165   6.2419   6.3235   6.3380   6.4594   6.4791
     6.6614   6.6887   6.7714   6.7923   7.0685   7.0930   7.1975   7.2156
     7.3879   7.4136   8.2685   8.2726   8.5416   8.5447   8.9557   8.9577
     9.1231   9.1274   9.3819   9.3949   9.6008   9.6129   9.7943   9.8116
     9.8507   9.8875  10.0170  10.0382  10.0678  10.0860  10.2413  10.2448
    10.3971  10.4108  10.4273  10.4788  10.5946  10.6249  10.6807  10.7172
    11.0512  11.0992  11.2653  11.3148  11.5922  11.6336  11.8571  11.8639
    12.2362  12.2474  12.3478  12.3625  12.4705  12.4847  12.7865  12.8401
    13.4058  13.4162  13.4950  13.5343  13.5869  13.6092  13.7219  13.7415
    13.7954  13.8064  14.1313  14.1541  14.1663  14.2027  14.2452  14.2814

     occupation numbers 
     1.0000   1.0000   1.0000   1.0000   1.0000   1.0000   1.0000   1.0000
     1.0000   1.0000   1.0000   1.0000   1.0000   1.0000   1.0000   1.0000
     1.0000   1.0000   1.0000   1.0000   1.0000   1.0000   1.0000   1.0000
     1.0000   1.0000   1.0000   1.0000   1.0000   1.0000   1.0000   1.0000
     1.0000   1.0000   1.0000   1.0000   1.0000   1.0000   1.0000   1.0000
     1.0000   1.0000   1.0000   1.0000   1.0000   1.0000   1.0000   1.0000
     1.0000   1.0000   1.0000   1.0000   1.0000   1.0000   1.0000   1.0000
     1.0000   1.0000   1.0000   1.0000   1.0000   1.0000   1.0000   1.0000
     1.0000   1.0000   1.0000   1.0000   1.0000   1.0000   1.0000   1.0000
     1.0000   1.0000   1.0000   1.0000   1.0000   1.0000   1.0000   1.0000
     1.0000   1.0000   1.0000   1.0000   1.0000   1.0000   1.0000   1.0000
     1.0000   1.0000   1.0000   1.0000   1.0000   1.0000   1.0000   1.0000
     1.0000   1.0000   1.0000   1.0000   1.0000   1.0000   1.0000   1.0000
     1.0000   1.0000   1.0000   1.0000   1.0000   1.0000   1.0000   1.0000
     1.0000   1.0000   1.0000   1.0000   1.0000   1.0000   1.0000   1.0000
     1.0000   1.0000   1.0000   1.0000   1.0000   1.0000   1.0000   1.0000
     1.0002   1.0003   1.0012   1.0016   1.0444   1.0527   1.0820   1.0833
     0.9433   0.8929   0.0000   0.0000   0.0000   0.0000   0.0000   0.0000
     0.0000   0.0000   0.0000   0.0000   0.0000   0.0000   0.0000   0.0000
     0.0000   0.0000   0.0000   0.0000   0.0000   0.0000   0.0000   0.0000
     0.0000   0.0000   0.0000   0.0000   0.0000   0.0000   0.0000   0.0000
     0.0000   0.0000   0.0000   0.0000   0.0000   0.0000   0.0000   0.0000
     0.0000   0.0000   0.0000   0.0000   0.0000   0.0000   0.0000   0.0000
     0.0000   0.0000   0.0000   0.0000   0.0000   0.0000   0.0000   0.0000
     0.0000   0.0000   0.0000   0.0000   0.0000   0.0000   0.0000   0.0000

          k = 5.5320-3.1939-0.2092 ( 23440 PWs)   bands (ev):

   -75.0374 -74.9580 -70.2459 -70.1606 -44.1352 -44.0515 -43.7271 -43.6501
   -43.2269 -43.1432 -39.1781 -39.0984 -38.7704 -38.6851 -38.4258 -38.3460
   -17.0181 -17.0180 -16.9831 -16.9831 -16.9585 -16.9585 -16.9357 -16.9357
   -16.9344 -16.9344 -16.9241 -16.9240 -16.9146 -16.9146 -16.9134 -16.9134
   -13.9955 -13.9955 -13.9936 -13.9936 -13.9921 -13.9921 -13.9832 -13.9831
   -13.9747 -13.9747 -13.9703 -13.9703 -13.9562 -13.9562 -13.9520 -13.9519
   -13.9459 -13.9459 -13.9387 -13.9386 -13.9361 -13.9361 -13.9325 -13.9325
    -5.3423  -5.3372  -5.3328  -5.3313  -5.1167  -5.1134  -5.1096  -5.1050
    -3.6881  -3.6488  -3.6224  -3.5835  -3.1452  -3.1323  -3.0859  -3.0707
    -1.4089  -1.4016  -1.3510  -1.3483  -0.7951  -0.7948  -0.7540  -0.7504
     1.8359   1.8700   1.9073   1.9162   1.9500   1.9835   2.0770   2.0946
     2.1579   2.1755   3.9347   3.9441   4.0063   4.0210   4.4256   4.4419
     4.4435   4.4581   4.8750   4.8996   5.0128   5.0340   5.3125   5.3387
     5.4427   5.4571   5.6175   5.6218   5.7711   5.7941   5.8017   5.8164
     5.8985   5.9263   6.2276   6.2510   6.2602   6.2828   6.4028   6.4294
     6.5262   6.5459   6.6766   6.6974   6.8131   6.8274   6.9047   6.9081
     7.0117   7.0204   7.1303   7.1456   7.3182   7.3497   7.4314   7.4447
     7.5526   7.5614   8.0204   8.0225   8.1520   8.1569   8.5627   8.5654
     8.6558   8.6595   9.2635   9.2929   9.5308   9.5338   9.5487   9.5530
     9.7755   9.7974   9.8413   9.8608   9.8838   9.9018  10.0272  10.0419
    10.0526  10.1083  10.1783  10.1910  10.2219  10.2836  10.3218  10.3944
    10.8455  10.9106  10.9156  10.9790  11.5228  11.5814  11.8380  11.9003
    12.1202  12.1742  12.5239  12.5847  12.7571  12.7741  12.9540  12.9845
    13.0605  13.0893  13.1029  13.1275  13.1815  13.2053  13.3222  13.3364
    13.6178  13.6260  13.6966  13.7536  13.8370  13.8463  13.8977  13.8989

     occupation numbers 
     1.0000   1.0000   1.0000   1.0000   1.0000   1.0000   1.0000   1.0000
     1.0000   1.0000   1.0000   1.0000   1.0000   1.0000   1.0000   1.0000
     1.0000   1.0000   1.0000   1.0000   1.0000   1.0000   1.0000   1.0000
     1.0000   1.0000   1.0000   1.0000   1.0000   1.0000   1.0000   1.0000
     1.0000   1.0000   1.0000   1.0000   1.0000   1.0000   1.0000   1.0000
     1.0000   1.0000   1.0000   1.0000   1.0000   1.0000   1.0000   1.0000
     1.0000   1.0000   1.0000   1.0000   1.0000   1.0000   1.0000   1.0000
     1.0000   1.0000   1.0000   1.0000   1.0000   1.0000   1.0000   1.0000
     1.0000   1.0000   1.0000   1.0000   1.0000   1.0000   1.0000   1.0000
     1.0000   1.0000   1.0000   1.0000   1.0000   1.0000   1.0000   1.0000
     1.0000   1.0000   1.0000   1.0000   1.0000   1.0000   1.0000   1.0000
     1.0000   1.0000   1.0000   1.0000   1.0000   1.0000   1.0000   1.0000
     1.0000   1.0000   1.0000   1.0000   1.0000   1.0000   1.0000   1.0000
     1.0000   1.0000   1.0000   1.0000   1.0000   1.0000   1.0000   1.0000
     1.0000   1.0000   1.0000   1.0000   1.0000   1.0000   1.0000   1.0000
     1.0000   1.0000   1.0002   1.0003   1.0023   1.0028   1.0083   1.0087
     1.0274   1.0297   1.0654   1.0703   1.0400   1.0038   0.8537   0.8226
     0.5345   0.5102   0.0034   0.0033   0.0003   0.0003   0.0000   0.0000
     0.0000   0.0000   0.0000   0.0000   0.0000   0.0000   0.0000   0.0000
     0.0000   0.0000   0.0000   0.0000   0.0000   0.0000   0.0000   0.0000
     0.0000   0.0000   0.0000   0.0000   0.0000   0.0000   0.0000   0.0000
     0.0000   0.0000   0.0000   0.0000   0.0000   0.0000   0.0000   0.0000
     0.0000   0.0000   0.0000   0.0000   0.0000   0.0000   0.0000   0.0000
     0.0000   0.0000   0.0000   0.0000   0.0000   0.0000   0.0000   0.0000
     0.0000   0.0000   0.0000   0.0000   0.0000   0.0000   0.0000   0.0000

          k = 4.7418-3.6502-0.1674 ( 23448 PWs)   bands (ev):

   -75.0374 -74.9580 -70.2459 -70.1606 -44.1353 -44.0515 -43.7271 -43.6501
   -43.2270 -43.1433 -39.1782 -39.0985 -38.7704 -38.6851 -38.4259 -38.3462
   -17.0183 -17.0181 -16.9823 -16.9822 -16.9577 -16.9576 -16.9361 -16.9356
   -16.9336 -16.9335 -16.9234 -16.9231 -16.9149 -16.9147 -16.9136 -16.9135
   -13.9972 -13.9961 -13.9937 -13.9920 -13.9913 -13.9907 -13.9824 -13.9820
   -13.9761 -13.9760 -13.9688 -13.9685 -13.9563 -13.9559 -13.9505 -13.9503
   -13.9473 -13.9468 -13.9399 -13.9398 -13.9346 -13.9342 -13.9314 -13.9312
    -5.0745  -5.0692  -5.0667  -5.0652  -4.8546  -4.8542  -4.8529  -4.8470
    -3.5069  -3.4643  -3.4559  -3.4142  -3.0416  -3.0041  -2.9963  -2.9562
    -1.5371  -1.5245  -1.5236  -1.5169  -1.1082  -1.0968  -1.0950  -1.0776
     1.8658   1.9056   1.9371   1.9457   1.9854   2.0138   2.0751   2.0911
     2.1558   2.1715   3.5981   3.6311   3.6458   3.6740   3.9951   4.0074
     4.0508   4.0564   4.3173   4.3459   4.4688   4.4720   4.5908   4.6055
     4.6712   4.6759   5.0948   5.1117   5.1479   5.1612   5.4954   5.5021
     5.5521   5.5664   5.7951   5.8201   5.9187   5.9332   6.0026   6.0226
     6.1641   6.1906   6.3312   6.3631   6.4560   6.4855   6.7807   6.7958
     6.8588   6.8801   6.9563   6.9653   7.0625   7.0807   7.1962   7.2297
     7.4181   7.4521   8.4490   8.4707   8.5643   8.5907   8.6991   8.7238
     8.8258   8.8512   9.6136   9.6202   9.6348   9.6668   9.7878   9.8101
     9.8662   9.8916  10.0697  10.1005  10.1314  10.1734  10.1804  10.2497
    10.3060  10.3231  10.3899  10.4031  10.5168  10.5302  10.6422  10.6750
    10.9142  10.9745  11.1085  11.1666  11.7073  11.7652  12.2043  12.2509
    12.3513  12.3659  12.4971  12.5435  12.6536  12.6627  12.6781  12.6793
    12.7794  12.7958  12.9495  12.9841  13.1732  13.2042  13.3898  13.3979
    13.7420  13.7542  13.8037  13.8214  14.0196  14.0247  14.0425  14.0450

     occupation numbers 
     1.0000   1.0000   1.0000   1.0000   1.0000   1.0000   1.0000   1.0000
     1.0000   1.0000   1.0000   1.0000   1.0000   1.0000   1.0000   1.0000
     1.0000   1.0000   1.0000   1.0000   1.0000   1.0000   1.0000   1.0000
     1.0000   1.0000   1.0000   1.0000   1.0000   1.0000   1.0000   1.0000
     1.0000   1.0000   1.0000   1.0000   1.0000   1.0000   1.0000   1.0000
     1.0000   1.0000   1.0000   1.0000   1.0000   1.0000   1.0000   1.0000
     1.0000   1.0000   1.0000   1.0000   1.0000   1.0000   1.0000   1.0000
     1.0000   1.0000   1.0000   1.0000   1.0000   1.0000   1.0000   1.0000
     1.0000   1.0000   1.0000   1.0000   1.0000   1.0000   1.0000   1.0000
     1.0000   1.0000   1.0000   1.0000   1.0000   1.0000   1.0000   1.0000
     1.0000   1.0000   1.0000   1.0000   1.0000   1.0000   1.0000   1.0000
     1.0000   1.0000   1.0000   1.0000   1.0000   1.0000   1.0000   1.0000
     1.0000   1.0000   1.0000   1.0000   1.0000   1.0000   1.0000   1.0000
     1.0000   1.0000   1.0000   1.0000   1.0000   1.0000   1.0000   1.0000
     1.0000   1.0000   1.0000   1.0000   1.0000   1.0000   1.0000   1.0000
     1.0000   1.0000   1.0000   1.0000   1.0000   1.0000   1.0013   1.0017
     1.0045   1.0060   1.0154   1.0171   1.0424   1.0485   1.0818   1.0829
     0.8833   0.8047   0.0000   0.0000   0.0000   0.0000   0.0000   0.0000
     0.0000   0.0000   0.0000   0.0000   0.0000   0.0000   0.0000   0.0000
     0.0000   0.0000   0.0000   0.0000   0.0000   0.0000   0.0000   0.0000
     0.0000   0.0000   0.0000   0.0000   0.0000   0.0000   0.0000   0.0000
     0.0000   0.0000   0.0000   0.0000   0.0000   0.0000   0.0000   0.0000
     0.0000   0.0000   0.0000   0.0000   0.0000   0.0000   0.0000   0.0000
     0.0000   0.0000   0.0000   0.0000   0.0000   0.0000   0.0000   0.0000
     0.0000   0.0000   0.0000   0.0000   0.0000   0.0000   0.0000   0.0000

          k = 0.0000 0.0000-0.5021 ( 23456 PWs)   bands (ev):

   -75.0374 -74.9580 -70.2459 -70.1606 -44.1352 -44.0514 -43.7271 -43.6501
   -43.2268 -43.1432 -39.1780 -39.0983 -38.7704 -38.6851 -38.4257 -38.3460
   -17.0180 -17.0179 -16.9837 -16.9836 -16.9591 -16.9590 -16.9356 -16.9354
   -16.9351 -16.9350 -16.9246 -16.9245 -16.9146 -16.9144 -16.9134 -16.9132
   -13.9959 -13.9958 -13.9945 -13.9945 -13.9918 -13.9917 -13.9838 -13.9836
   -13.9738 -13.9737 -13.9713 -13.9712 -13.9566 -13.9565 -13.9531 -13.9531
   -13.9450 -13.9449 -13.9378 -13.9376 -13.9373 -13.9372 -13.9331 -13.9330
    -5.4785  -5.4722  -5.4706  -5.4677  -5.2474  -5.2446  -5.2444  -5.2398
    -3.7853  -3.7339  -3.7309  -3.6796  -3.1982  -3.1928  -3.1527  -3.1450
    -1.3478  -1.3337  -1.3098  -1.2999  -0.6253  -0.6155  -0.6078  -0.6008
     1.8106   1.8399   1.8904   1.8913   1.9203   1.9663   2.0834   2.1016
     2.1645   2.1826   4.0596   4.1025   4.1090   4.1548   4.8968   4.9114
     4.9176   4.9184   5.4103   5.4236   5.4322   5.4482   5.7285   5.7394
     5.7773   5.7899   6.0985   6.1382   6.2825   6.2895   6.3148   6.3179
     6.3197   6.3461   6.3584   6.3605   6.4504   6.4673   6.6341   6.6369
     6.7316   6.7503   6.8901   6.9009   6.9153   6.9446   6.9735   6.9851
     7.2319   7.2695   7.2939   7.3274   7.5174   7.5258   7.5477   7.5767
     7.6560   7.6712   7.8281   7.8307   7.9225   7.9267   8.0440   8.0752
     8.1004   8.1176   9.0041   9.0405   9.2135   9.2392   9.3024   9.3264
     9.5181   9.5398   9.5511   9.5712   9.5794   9.5840   9.7063   9.7236
     9.9907  10.0042  10.0534  10.1257  10.1298  10.1528  10.2006  10.2227
    10.7022  10.7773  10.9392  11.0057  11.4560  11.5172  11.6403  11.6741
    11.7919  11.8263  12.5987  12.6565  12.6769  12.7422  12.8268  12.8908
    13.2592  13.2602  13.2809  13.2986  13.3563  13.4032  13.4081  13.4097
    13.6495  13.6570  13.8118  13.8358  13.8606  13.8893  13.9224  13.9428

     occupation numbers 
     1.0000   1.0000   1.0000   1.0000   1.0000   1.0000   1.0000   1.0000
     1.0000   1.0000   1.0000   1.0000   1.0000   1.0000   1.0000   1.0000
     1.0000   1.0000   1.0000   1.0000   1.0000   1.0000   1.0000   1.0000
     1.0000   1.0000   1.0000   1.0000   1.0000   1.0000   1.0000   1.0000
     1.0000   1.0000   1.0000   1.0000   1.0000   1.0000   1.0000   1.0000
     1.0000   1.0000   1.0000   1.0000   1.0000   1.0000   1.0000   1.0000
     1.0000   1.0000   1.0000   1.0000   1.0000   1.0000   1.0000   1.0000
     1.0000   1.0000   1.0000   1.0000   1.0000   1.0000   1.0000   1.0000
     1.0000   1.0000   1.0000   1.0000   1.0000   1.0000   1.0000   1.0000
     1.0000   1.0000   1.0000   1.0000   1.0000   1.0000   1.0000   1.0000
     1.0000   1.0000   1.0000   1.0000   1.0000   1.0000   1.0000   1.0000
     1.0000   1.0000   1.0000   1.0000   1.0000   1.0000   1.0000   1.0000
     1.0000   1.0000   1.0000   1.0000   1.0000   1.0000   1.0000   1.0000
     1.0000   1.0000   1.0000   1.0000   1.0000   1.0000   1.0000   1.0000
     1.0000   1.0000   1.0000   1.0000   1.0000   1.0000   1.0001   1.0001
     1.0006   1.0008   1.0069   1.0079   1.0095   1.0135   1.0186   1.0211
     1.0827   1.0733   1.0599   1.0307   0.6318   0.6086   0.5479   0.4690
     0.2781   0.2474   0.0530   0.0514   0.0155   0.0146   0.0023   0.0013
     0.0008   0.0006   0.0000   0.0000   0.0000   0.0000   0.0000   0.0000
     0.0000   0.0000   0.0000   0.0000   0.0000   0.0000   0.0000   0.0000
     0.0000   0.0000   0.0000   0.0000   0.0000   0.0000   0.0000   0.0000
     0.0000   0.0000   0.0000   0.0000   0.0000   0.0000   0.0000   0.0000
     0.0000   0.0000   0.0000   0.0000   0.0000   0.0000   0.0000   0.0000
     0.0000   0.0000   0.0000   0.0000   0.0000   0.0000   0.0000   0.0000
     0.0000   0.0000   0.0000   0.0000   0.0000   0.0000   0.0000   0.0000

     the Fermi energy is     7.6031 ev
     (compare with:     7.6133 eV, computed in scf)

     Writing all to output data dir ./tmp/MnBi2Te4.save/
 
     init_run     :     12.23s CPU     12.87s WALL (       1 calls)
     electrons    :  14587.02s CPU  15105.63s WALL (       1 calls)

     Called by init_run:
     wfcinit      :      9.34s CPU      9.73s WALL (       1 calls)
     wfcinit:atom :      0.11s CPU      0.12s WALL (      65 calls)
     wfcinit:wfcr :    655.52s CPU    678.60s WALL (      65 calls)
     potinit      :      1.32s CPU      1.44s WALL (       1 calls)
     hinit0       :      0.84s CPU      0.90s WALL (       1 calls)

     Called by electrons:
     c_bands      :  14587.00s CPU  15105.59s WALL (       1 calls)
     v_of_rho     :      0.62s CPU      0.71s WALL (       1 calls)
     v_h          :      0.01s CPU      0.01s WALL (       1 calls)
     v_xc         :      0.62s CPU      0.69s WALL (       1 calls)
     newd         :      0.65s CPU      0.70s WALL (       1 calls)
     PAW_pot      :      0.62s CPU      0.64s WALL (       1 calls)

     Called by c_bands:
     init_us_2    :      0.33s CPU      0.35s WALL (     130 calls)
     init_us_2:cp :      0.33s CPU      0.35s WALL (     130 calls)
     cegterg      :  13927.66s CPU  14422.48s WALL (     187 calls)

     Called by sum_band:

     Called by *egterg:
     cdiaghg      :    109.41s CPU    112.54s WALL (    3319 calls)
     cegterg:over :     62.18s CPU     64.37s WALL (    3254 calls)
     cegterg:upda :     47.38s CPU     48.27s WALL (    3254 calls)
     cegterg:last :    116.97s CPU    120.07s WALL (    1466 calls)
     cdiaghg:chol :      7.64s CPU      7.74s WALL (    3319 calls)
     cdiaghg:inve :      2.13s CPU      2.15s WALL (    3319 calls)
     cdiaghg:para :     21.25s CPU     23.07s WALL (    6638 calls)
     h_psi        :  14178.59s CPU  14686.50s WALL (    3506 calls)
     s_psi        :     56.47s CPU     56.77s WALL (    3571 calls)
     g_psi        :      1.17s CPU      1.18s WALL (    3254 calls)

     Called by h_psi:
     h_psi:calbec :     59.10s CPU     62.55s WALL (    3506 calls)
     vloc_psi     :  14030.79s CPU  14534.53s WALL (    3506 calls)
     add_vuspsi   :     50.91s CPU     51.19s WALL (    3506 calls)
     vhpsi        :     34.82s CPU     35.22s WALL (    3506 calls)

     General routines
     calbec       :     61.08s CPU     64.73s WALL (    3571 calls)
     fft          :      0.22s CPU      0.25s WALL (      27 calls)
     fftw         :   8595.22s CPU   9052.79s WALL ( 1134348 calls)
     davcio       :      0.05s CPU      0.96s WALL (     260 calls)
 
     Parallel routines

     Hubbard U routines
     vhpsi        :     34.82s CPU     35.22s WALL (    3506 calls)

     PAW routines
     PAW_pot      :      0.62s CPU      0.64s WALL (       1 calls)
 
     PWSCF        :      4h 3m CPU      4h12m WALL

 
   This run was terminated on:  17:30:28  14Jul2025            

=------------------------------------------------------------------------------=
   JOB DONE.
=------------------------------------------------------------------------------=
