
     Program PWSCF v.7.2 starts on 14Jul2025 at 17:30:29 

     This program is part of the open-source Quantum ESPRESSO suite
     for quantum simulation of materials; please cite
         "P. Giannozzi et al., J. Phys.:Condens. Matter 21 395502 (2009);
         "P. Giannozzi et al., J. Phys.:Condens. Matter 29 465901 (2017);
         "P. Giannozzi et al., J. Chem. Phys. 152 154105 (2020);
          URL http://www.quantum-espresso.org", 
     in publications or presentations arising from this work. More details at
     http://www.quantum-espresso.org/quote

     Parallel version (MPI), running on    32 processors

     MPI processes distributed on     1 nodes
     232245 MiB available memory on the printing compute node when the environment starts
 
     Reading input from MnBi2Te4.bands.in

     Current dimensions of program PWSCF are:
     Max number of different atomic species (ntypx) = 10
     Max number of k-points (npk) = 120000
     Max angular momentum in pseudopotentials (lmaxx) =  4

     Atomic positions and unit cell read from directory:
     ./tmp/MnBi2Te4.save/
     Atomic positions from file used, from input discarded
 
     file Mn.rel-pbe-spn-kjpaw_psl.1.0.0.UPF: wavefunction(s)  3S 4S 3P 3P 3D 3D renormalized
     file Mn.rel-pbe-spn-kjpaw_psl.1.0.0.UPF: wavefunction(s)  3S 4S 3P 3P 3D 3D renormalized
     file Bi.rel-pbe-dn-kjpaw_psl.1.0.0.UPF: wavefunction(s)  6P 6P 5D 5D renormalized
     file Te.rel-pbe-n-kjpaw_psl.1.0.0.UPF: wavefunction(s)  5S 5P 5P renormalized

     Fixed quantization axis for GGA:     0.000000    0.000000    1.000000
 
     R & G space division:  proc/nbgrp/npool/nimage =      32
     Subspace diagonalization in iterative solution of the eigenvalue problem:
     one sub-group per band group will be used
     scalapack distributed-memory algorithm (size of sub-group:  2*  2 procs)

 
     Parallelization info
     --------------------
     sticks:   dense  smooth     PW     G-vecs:    dense   smooth      PW
     Min         252     252     70                 5873     5873     871
     Max         253     253     71                 5875     5875     873
     Sum        8079    8079   2257               187971   187971   27897
 
     Using Slab Decomposition
 


     bravais-lattice index     =            5
     lattice parameter (alat)  =      51.7756  a.u.
     unit-cell volume          =    2994.5593 (a.u.)^3
     number of atoms/cell      =           14
     number of atomic types    =            4
     number of electrons       =       138.00
     number of Kohn-Sham states=          200
     kinetic-energy cutoff     =      60.0000  Ry
     charge density cutoff     =     240.0000  Ry
     Exchange-correlation= SLA  PW   PBX  PBC
                           (   1   4   3   4   0   0   0)
     Noncollinear calculation with spin-orbit

     Hubbard projectors: ortho-atomic
     Hubbard parameters of DFT+U (Liechtenstein formulation) in eV:
     U(Mn1-3d) =  4.0000
     U(Mn2-3d) =  4.0000
     DFT+U on averaged j=l+1/2,l-1/2 radial WFs

     Internal variables: lda_plus_u = T, lda_plus_u_kind = 1

     celldm(1)=  51.775623  celldm(2)=   0.000000  celldm(3)=   0.000000
     celldm(4)=   0.987491  celldm(5)=   0.000000  celldm(6)=   0.000000

     crystal axes: (cart. coord. in units of alat)
               a(1) = (   0.079085  -0.045660   0.995822 )  
               a(2) = (   0.000000   0.091319   0.995822 )  
               a(3) = (  -0.079085  -0.045660   0.995822 )  

     reciprocal axes: (cart. coord. in units 2 pi/alat)
               b(1) = (  6.322337 -3.650203  0.334732 )  
               b(2) = (  0.000000  7.300406  0.334732 )  
               b(3) = ( -6.322337 -3.650203  0.334732 )  


     PseudoPot. # 1 for Mn read from file:
     ./Mn.rel-pbe-spn-kjpaw_psl.1.0.0.UPF
     MD5 check sum: 62c7b35748dc83398aa7a788c15386af
     Pseudo is Projector augmented-wave + core cor, Zval = 15.0
     Generated using 'atomic' code by A. Dal Corso  v.7.1
     Shape of augmentation charge: PSQ
     Using radial grid of 1187 points, 10 beta functions with: 
                l(1) =   0
                l(2) =   0
                l(3) =   1
                l(4) =   1
                l(5) =   1
                l(6) =   1
                l(7) =   2
                l(8) =   2
                l(9) =   2
               l(10) =   2
     Q(r) pseudized with 0 coefficients 


     PseudoPot. # 2 for Mn read from file:
     ./Mn.rel-pbe-spn-kjpaw_psl.1.0.0.UPF
     MD5 check sum: 62c7b35748dc83398aa7a788c15386af
     Pseudo is Projector augmented-wave + core cor, Zval = 15.0
     Generated using 'atomic' code by A. Dal Corso  v.7.1
     Shape of augmentation charge: PSQ
     Using radial grid of 1187 points, 10 beta functions with: 
                l(1) =   0
                l(2) =   0
                l(3) =   1
                l(4) =   1
                l(5) =   1
                l(6) =   1
                l(7) =   2
                l(8) =   2
                l(9) =   2
               l(10) =   2
     Q(r) pseudized with 0 coefficients 


     PseudoPot. # 3 for Bi read from file:
     ./Bi.rel-pbe-dn-kjpaw_psl.1.0.0.UPF
     MD5 check sum: fc32cfc87b481ddd01d0f21eceeae593
     Pseudo is Projector augmented-wave + core cor, Zval = 15.0
     Generated using 'atomic' code by A. Dal Corso  v.7.1
     Shape of augmentation charge: PSQ
     Using radial grid of 1283 points, 10 beta functions with: 
                l(1) =   0
                l(2) =   0
                l(3) =   1
                l(4) =   1
                l(5) =   1
                l(6) =   1
                l(7) =   2
                l(8) =   2
                l(9) =   2
               l(10) =   2
     Q(r) pseudized with 0 coefficients 


     PseudoPot. # 4 for Te read from file:
     ./Te.rel-pbe-n-kjpaw_psl.1.0.0.UPF
     MD5 check sum: 5d6e171516c684cb1de97b601e9672ea
     Pseudo is Projector augmented-wave + core cor, Zval =  6.0
     Generated using 'atomic' code by A. Dal Corso  v.7.1
     Shape of augmentation charge: PSQ
     Using radial grid of 1245 points, 10 beta functions with: 
                l(1) =   0
                l(2) =   0
                l(3) =   1
                l(4) =   1
                l(5) =   1
                l(6) =   1
                l(7) =   2
                l(8) =   2
                l(9) =   2
               l(10) =   2
     Q(r) pseudized with 0 coefficients 


     atomic species   valence    mass     pseudopotential
        Mn1           15.00    54.93800     Mn( 1.00)
        Mn2           15.00    54.93800     Mn( 1.00)
        Bi            15.00   208.98000     Bi( 1.00)
        Te             6.00   127.60300     Te( 1.00)

     12 Sym. Ops., with inversion, found


                                    s                        frac. trans.

      isym =  1     identity                                     

 Time Reversal            0
 cryst.   s( 1) = (     1          0          0      )
                  (     0          1          0      )
                  (     0          0          1      )

 cart.    s( 1) = (  1.0000000  0.0000000  0.0000000 )
                  (  0.0000000  1.0000000  0.0000000 )
                  (  0.0000000  0.0000000  1.0000000 )


      isym =  2     180 deg rotation - cart. axis [1,0,0]        

 Time Reversal            1
 cryst.   s( 2) = (     0          0         -1      )
                  (     0         -1          0      )
                  (    -1          0          0      )

 cart.    s( 2) = (  1.0000000  0.0000000  0.0000000 )
                  (  0.0000000 -1.0000000  0.0000000 )
                  (  0.0000000  0.0000000 -1.0000000 )


      isym =  3     120 deg rotation - cryst. axis [0,0,1]       

 Time Reversal            0
 cryst.   s( 3) = (     0          1          0      )
                  (     0          0          1      )
                  (     1          0          0      )

 cart.    s( 3) = ( -0.5000000 -0.8660254 -0.0000000 )
                  (  0.8660254 -0.5000000 -0.0000000 )
                  (  0.0000000  0.0000000  1.0000000 )


      isym =  4     120 deg rotation - cryst. axis [0,0,-1]      

 Time Reversal            0
 cryst.   s( 4) = (     0          0          1      )
                  (     1          0          0      )
                  (     0          1          0      )

 cart.    s( 4) = ( -0.5000000  0.8660254  0.0000000 )
                  ( -0.8660254 -0.5000000 -0.0000000 )
                  (  0.0000000  0.0000000  1.0000000 )


      isym =  5     180 deg rotation - cryst. axis [0,1,0]       

 Time Reversal            1
 cryst.   s( 5) = (     0         -1          0      )
                  (    -1          0          0      )
                  (     0          0         -1      )

 cart.    s( 5) = ( -0.5000000 -0.8660254 -0.0000000 )
                  ( -0.8660254  0.5000000  0.0000000 )
                  (  0.0000000  0.0000000 -1.0000000 )


      isym =  6     180 deg rotation - cryst. axis [1,1,0]       

 Time Reversal            1
 cryst.   s( 6) = (    -1          0          0      )
                  (     0          0         -1      )
                  (     0         -1          0      )

 cart.    s( 6) = ( -0.5000000  0.8660254  0.0000000 )
                  (  0.8660254  0.5000000  0.0000000 )
                  (  0.0000000  0.0000000 -1.0000000 )


      isym =  7     inversion                                    

 Time Reversal            0
 cryst.   s( 7) = (    -1          0          0      )
                  (     0         -1          0      )
                  (     0          0         -1      )

 cart.    s( 7) = ( -1.0000000  0.0000000  0.0000000 )
                  (  0.0000000 -1.0000000  0.0000000 )
                  (  0.0000000  0.0000000 -1.0000000 )


      isym =  8     inv. 180 deg rotation - cart. axis [1,0,0]   

 Time Reversal            1
 cryst.   s( 8) = (     0          0          1      )
                  (     0          1          0      )
                  (     1          0          0      )

 cart.    s( 8) = ( -1.0000000  0.0000000  0.0000000 )
                  (  0.0000000  1.0000000  0.0000000 )
                  (  0.0000000  0.0000000  1.0000000 )


      isym =  9     inv. 120 deg rotation - cryst. axis [0,0,1]  

 Time Reversal            0
 cryst.   s( 9) = (     0         -1          0      )
                  (     0          0         -1      )
                  (    -1          0          0      )

 cart.    s( 9) = (  0.5000000  0.8660254  0.0000000 )
                  ( -0.8660254  0.5000000  0.0000000 )
                  (  0.0000000  0.0000000 -1.0000000 )


      isym = 10     inv. 120 deg rotation - cryst. axis [0,0,-1] 

 Time Reversal            0
 cryst.   s(10) = (     0          0         -1      )
                  (    -1          0          0      )
                  (     0         -1          0      )

 cart.    s(10) = (  0.5000000 -0.8660254 -0.0000000 )
                  (  0.8660254  0.5000000  0.0000000 )
                  (  0.0000000  0.0000000 -1.0000000 )


      isym = 11     inv. 180 deg rotation - cryst. axis [0,1,0]  

 Time Reversal            1
 cryst.   s(11) = (     0          1          0      )
                  (     1          0          0      )
                  (     0          0          1      )

 cart.    s(11) = (  0.5000000  0.8660254  0.0000000 )
                  (  0.8660254 -0.5000000 -0.0000000 )
                  (  0.0000000  0.0000000  1.0000000 )


      isym = 12     inv. 180 deg rotation - cryst. axis [1,1,0]  

 Time Reversal            1
 cryst.   s(12) = (     1          0          0      )
                  (     0          0          1      )
                  (     0          1          0      )

 cart.    s(12) = (  0.5000000 -0.8660254 -0.0000000 )
                  ( -0.8660254 -0.5000000 -0.0000000 )
                  (  0.0000000  0.0000000  1.0000000 )


     the magnetic double point group is D_3d (-3m)  [S_6 (-3)   ]
     using the double point group S_6 (-3)   
     there are 12 classes and  6 irreducible representations
     the character table:

       E     -E    C3    -C3   C3^2  -C3^2  i    -i    S6^5  -S6^5 S6    -S6  
                                                                              
G_4+   1.00 -1.00  0.50 -0.50  0.50 -0.50  1.00 -1.00  0.50 -0.50  0.50 -0.50
G_5+   1.00 -1.00  0.50 -0.50  0.50 -0.50  1.00 -1.00  0.50 -0.50  0.50 -0.50
G_6+   1.00 -1.00 -1.00  1.00 -1.00  1.00  1.00 -1.00 -1.00  1.00 -1.00  1.00
G_4-   1.00 -1.00  0.50 -0.50  0.50 -0.50 -1.00  1.00 -0.50  0.50 -0.50  0.50
G_5-   1.00 -1.00  0.50 -0.50  0.50 -0.50 -1.00  1.00 -0.50  0.50 -0.50  0.50
G_6-   1.00 -1.00 -1.00  1.00 -1.00  1.00 -1.00  1.00  1.00 -1.00  1.00 -1.00

     imaginary part

       E     -E    C3    -C3   C3^2  -C3^2  i    -i    S6^5  -S6^5 S6    -S6  
                                                                              
G_4+   0.00  0.00  0.87 -0.87 -0.87  0.87  0.00  0.00  0.87 -0.87 -0.87  0.87
G_5+   0.00  0.00 -0.87  0.87  0.87 -0.87  0.00  0.00 -0.87  0.87  0.87 -0.87
G_6+   0.00  0.00  0.00  0.00  0.00  0.00  0.00  0.00  0.00  0.00  0.00  0.00
G_4-   0.00  0.00  0.87 -0.87 -0.87  0.87  0.00  0.00 -0.87  0.87  0.87 -0.87
G_5-   0.00  0.00 -0.87  0.87  0.87 -0.87  0.00  0.00  0.87 -0.87 -0.87  0.87
G_6-   0.00  0.00  0.00  0.00  0.00  0.00  0.00  0.00  0.00  0.00  0.00  0.00

     the symmetry operations in each class and the name of the first element:

     E             1
          identity                                               
     -E           -1
          identity E                                             
     C3            2
          120 deg rotation - cryst. axis [0,0,1]                 
     -C3          -2
          120 deg rotation - cryst. axis [0,0,1] E               
     C3^2          3
          120 deg rotation - cryst. axis [0,0,-1]                
     -C3^2        -3
          120 deg rotation - cryst. axis [0,0,-1] E              
      i            4
          inversion                                              
     -i           -4
          inversion E                                            
     S6^5          5
          inv. 120 deg rotation - cryst. axis [0,0,1]            
     -S6^5        -5
          inv. 120 deg rotation - cryst. axis [0,0,1] E          
     S6            6
          inv. 120 deg rotation - cryst. axis [0,0,-1]           
     -S6          -6
          inv. 120 deg rotation - cryst. axis [0,0,-1] E         

   Cartesian axes

     site n.     atom                  positions (alat units)
         1           Mn1 tau(   1) = (   0.0000000   0.0000000   0.0000000  )
         2           Mn2 tau(   2) = (   0.0000000  -0.0000000   1.4937325  )
         3           Bi  tau(   3) = (   0.0000000  -0.0000000   0.6346869  )
         4           Bi  tau(   4) = (   0.0000000  -0.0000000   2.1284195  )
         5           Bi  tau(   5) = (   0.0000000  -0.0000000   0.8590456  )
         6           Bi  tau(   6) = (   0.0000000  -0.0000000   2.3527781  )
         7           Te  tau(   7) = (   0.0000000  -0.0000000   0.1992042  )
         8           Te  tau(   8) = (   0.0000000  -0.0000000   1.6929367  )
         9           Te  tau(   9) = (   0.0000000  -0.0000000   1.2945284  )
        10           Te  tau(  10) = (   0.0000000  -0.0000000   2.7882609  )
        11           Te  tau(  11) = (   0.0000000  -0.0000000   0.4392470  )
        12           Te  tau(  12) = (   0.0000000  -0.0000000   1.9329795  )
        13           Te  tau(  13) = (   0.0000000  -0.0000000   1.0544855  )
        14           Te  tau(  14) = (   0.0000000  -0.0000000   2.5482181  )

     --------------------------------------------
     DFT-D3 Dispersion Correction (3-body terms):
     --------------------------------------------
       Reference C6 values for interpolation: 

         atom   Coordination number   C6
         Mn1        0.000          1605.50
         Mn1        1.641           479.11
         Mn1        9.885           227.69
         Mn2        0.000          1605.50
         Mn2        1.641           479.11
         Mn2        9.885           227.69
         Te         0.000           851.07
         Te         0.981           850.20
         Te         1.964           837.16
         Bi         0.000          1235.06
         Bi         0.982          1188.09
         Bi         1.966          1132.10
         Bi         2.950          1067.76

       Values used:

         atom   Coordination number  R0_AB[au]  C6      C8
         Mn1        3.848            3.351    479.11  48433.79
         Mn2        3.848            3.351    479.11  48433.79
         Bi         5.275            3.890   1067.76 147315.96
         Bi         5.275            3.890   1067.76 147315.96
         Bi         5.275            3.890   1067.76 147315.96
         Bi         5.275            3.890   1067.76 147315.96
         Te         3.328            3.676    837.16  84978.06
         Te         3.328            3.676    837.16  84978.06
         Te         3.328            3.676    837.16  84978.06
         Te         3.328            3.676    837.16  84978.06
         Te         4.238            3.676    837.16  84978.05
         Te         4.238            3.676    837.16  84978.05
         Te         4.238            3.676    837.16  84978.05
         Te         4.238            3.676    837.16  84978.05

         Molecular C6 ( Ry / a.u.^6 ) =    164642.77


   Crystallographic axes

     site n.     atom                  positions (cryst. coord.)
         1           Mn1 tau(   1) = (  0.0000000  0.0000000  0.0000000  )
         2           Mn2 tau(   2) = (  0.5000000  0.5000000  0.5000000  )
         3           Bi  tau(   3) = (  0.2124500  0.2124500  0.2124500  )
         4           Bi  tau(   4) = (  0.7124500  0.7124500  0.7124500  )
         5           Bi  tau(   5) = (  0.2875500  0.2875500  0.2875500  )
         6           Bi  tau(   6) = (  0.7875500  0.7875500  0.7875500  )
         7           Te  tau(   7) = (  0.0666800  0.0666800  0.0666800  )
         8           Te  tau(   8) = (  0.5666800  0.5666800  0.5666800  )
         9           Te  tau(   9) = (  0.4333200  0.4333200  0.4333200  )
        10           Te  tau(  10) = (  0.9333200  0.9333200  0.9333200  )
        11           Te  tau(  11) = (  0.1470300  0.1470300  0.1470300  )
        12           Te  tau(  12) = (  0.6470300  0.6470300  0.6470300  )
        13           Te  tau(  13) = (  0.3529700  0.3529700  0.3529700  )
        14           Te  tau(  14) = (  0.8529700  0.8529700  0.8529700  )

     number of k points=   251  Marzari-Vanderbilt smearing, width (Ry)=  0.0200
                       cart. coord. in units 2pi/alat
        k(    1) = (   0.0000000   0.0000000   0.0000000), wk =   0.0039841
        k(    2) = (   0.0000000   0.0000000   0.0100420), wk =   0.0039841
        k(    3) = (   0.0000000   0.0000000   0.0200839), wk =   0.0039841
        k(    4) = (   0.0000000   0.0000000   0.0301259), wk =   0.0039841
        k(    5) = (   0.0000000   0.0000000   0.0401678), wk =   0.0039841
        k(    6) = (   0.0000000   0.0000000   0.0502098), wk =   0.0039841
        k(    7) = (   0.0000000   0.0000000   0.0602518), wk =   0.0039841
        k(    8) = (   0.0000000   0.0000000   0.0702937), wk =   0.0039841
        k(    9) = (   0.0000000   0.0000000   0.0803357), wk =   0.0039841
        k(   10) = (   0.0000000   0.0000000   0.0903776), wk =   0.0039841
        k(   11) = (   0.0000000   0.0000000   0.1004196), wk =   0.0039841
        k(   12) = (   0.0000000   0.0000000   0.1104615), wk =   0.0039841
        k(   13) = (   0.0000000   0.0000000   0.1205035), wk =   0.0039841
        k(   14) = (   0.0000000   0.0000000   0.1305455), wk =   0.0039841
        k(   15) = (   0.0000000   0.0000000   0.1405874), wk =   0.0039841
        k(   16) = (   0.0000000   0.0000000   0.1506294), wk =   0.0039841
        k(   17) = (   0.0000000   0.0000000   0.1606713), wk =   0.0039841
        k(   18) = (   0.0000000   0.0000000   0.1707133), wk =   0.0039841
        k(   19) = (   0.0000000   0.0000000   0.1807553), wk =   0.0039841
        k(   20) = (   0.0000000   0.0000000   0.1907972), wk =   0.0039841
        k(   21) = (   0.0000000   0.0000000   0.2008392), wk =   0.0039841
        k(   22) = (   0.0000000   0.0000000   0.2108811), wk =   0.0039841
        k(   23) = (   0.0000000   0.0000000   0.2209231), wk =   0.0039841
        k(   24) = (   0.0000000   0.0000000   0.2309650), wk =   0.0039841
        k(   25) = (   0.0000000   0.0000000   0.2410070), wk =   0.0039841
        k(   26) = (   0.0000000   0.0000000   0.2510490), wk =   0.0039841
        k(   27) = (   0.0000000   0.0000000   0.2610909), wk =   0.0039841
        k(   28) = (   0.0000000   0.0000000   0.2711329), wk =   0.0039841
        k(   29) = (   0.0000000   0.0000000   0.2811748), wk =   0.0039841
        k(   30) = (   0.0000000   0.0000000   0.2912168), wk =   0.0039841
        k(   31) = (   0.0000000   0.0000000   0.3012588), wk =   0.0039841
        k(   32) = (   0.0000000   0.0000000   0.3113007), wk =   0.0039841
        k(   33) = (   0.0000000   0.0000000   0.3213427), wk =   0.0039841
        k(   34) = (   0.0000000   0.0000000   0.3313846), wk =   0.0039841
        k(   35) = (   0.0000000   0.0000000   0.3414266), wk =   0.0039841
        k(   36) = (   0.0000000   0.0000000   0.3514685), wk =   0.0039841
        k(   37) = (   0.0000000   0.0000000   0.3615105), wk =   0.0039841
        k(   38) = (   0.0000000   0.0000000   0.3715525), wk =   0.0039841
        k(   39) = (   0.0000000   0.0000000   0.3815944), wk =   0.0039841
        k(   40) = (   0.0000000   0.0000000   0.3916364), wk =   0.0039841
        k(   41) = (   0.0000000   0.0000000   0.4016783), wk =   0.0039841
        k(   42) = (   0.0000000   0.0000000   0.4117203), wk =   0.0039841
        k(   43) = (   0.0000000   0.0000000   0.4217623), wk =   0.0039841
        k(   44) = (   0.0000000   0.0000000   0.4318042), wk =   0.0039841
        k(   45) = (   0.0000000   0.0000000   0.4418462), wk =   0.0039841
        k(   46) = (   0.0000000   0.0000000   0.4518881), wk =   0.0039841
        k(   47) = (   0.0000000   0.0000000   0.4619301), wk =   0.0039841
        k(   48) = (   0.0000000   0.0000000   0.4719721), wk =   0.0039841
        k(   49) = (   0.0000000   0.0000000   0.4820140), wk =   0.0039841
        k(   50) = (   0.0000000   0.0000000   0.4920560), wk =   0.0039841
        k(   51) = (   0.0000000   0.0000000   0.5020979), wk =   0.0039841
        k(   52) = (   0.0000000  -0.0717762   0.5020979), wk =   0.0039841
        k(   53) = (   0.0000000  -0.1435525   0.5020979), wk =   0.0039841
        k(   54) = (   0.0000000  -0.2153287   0.5020979), wk =   0.0039841
        k(   55) = (   0.0000000  -0.2871049   0.5020979), wk =   0.0039841
        k(   56) = (   0.0000000  -0.3588812   0.5020979), wk =   0.0039841
        k(   57) = (   0.0000000  -0.4306574   0.5020979), wk =   0.0039841
        k(   58) = (   0.0000000  -0.5024336   0.5020979), wk =   0.0039841
        k(   59) = (   0.0000000  -0.5742099   0.5020979), wk =   0.0039841
        k(   60) = (   0.0000000  -0.6459861   0.5020979), wk =   0.0039841
        k(   61) = (   0.0000000  -0.7177623   0.5020979), wk =   0.0039841
        k(   62) = (   0.0000000  -0.7895386   0.5020979), wk =   0.0039841
        k(   63) = (   0.0000000  -0.8613148   0.5020979), wk =   0.0039841
        k(   64) = (   0.0000000  -0.9330910   0.5020979), wk =   0.0039841
        k(   65) = (   0.0000000  -1.0048673   0.5020979), wk =   0.0039841
        k(   66) = (   0.0000000  -1.0766435   0.5020979), wk =   0.0039841
        k(   67) = (   0.0000000  -1.1484197   0.5020979), wk =   0.0039841
        k(   68) = (   0.0000000  -1.2201960   0.5020979), wk =   0.0039841
        k(   69) = (   0.0000000  -1.2919722   0.5020979), wk =   0.0039841
        k(   70) = (   0.0000000  -1.3637484   0.5020979), wk =   0.0039841
        k(   71) = (   0.0000000  -1.4355247   0.5020979), wk =   0.0039841
        k(   72) = (   0.0000000  -1.5073009   0.5020979), wk =   0.0039841
        k(   73) = (   0.0000000  -1.5790771   0.5020979), wk =   0.0039841
        k(   74) = (   0.0000000  -1.6508534   0.5020979), wk =   0.0039841
        k(   75) = (   0.0000000  -1.7226296   0.5020979), wk =   0.0039841
        k(   76) = (   0.0000000  -1.7944058   0.5020979), wk =   0.0039841
        k(   77) = (   0.0000000  -1.8661821   0.5020979), wk =   0.0039841
        k(   78) = (   0.0000000  -1.9379583   0.5020979), wk =   0.0039841
        k(   79) = (   0.0000000  -2.0097345   0.5020979), wk =   0.0039841
        k(   80) = (   0.0000000  -2.0815108   0.5020979), wk =   0.0039841
        k(   81) = (   0.0000000  -2.1532870   0.5020979), wk =   0.0039841
        k(   82) = (   0.0000000  -2.2250632   0.5020979), wk =   0.0039841
        k(   83) = (   0.0000000  -2.2968395   0.5020979), wk =   0.0039841
        k(   84) = (   0.0000000  -2.3686157   0.5020979), wk =   0.0039841
        k(   85) = (   0.0000000  -2.4403919   0.5020979), wk =   0.0039841
        k(   86) = (   0.0000000  -2.5121682   0.5020979), wk =   0.0039841
        k(   87) = (   0.0000000  -2.5839444   0.5020979), wk =   0.0039841
        k(   88) = (   0.0000000  -2.6557206   0.5020979), wk =   0.0039841
        k(   89) = (   0.0000000  -2.7274969   0.5020979), wk =   0.0039841
        k(   90) = (   0.0000000  -2.7992731   0.5020979), wk =   0.0039841
        k(   91) = (   0.0000000  -2.8710493   0.5020979), wk =   0.0039841
        k(   92) = (   0.0000000  -2.9428256   0.5020979), wk =   0.0039841
        k(   93) = (   0.0000000  -3.0146018   0.5020979), wk =   0.0039841
        k(   94) = (   0.0000000  -3.0863780   0.5020979), wk =   0.0039841
        k(   95) = (   0.0000000  -3.1581543   0.5020979), wk =   0.0039841
        k(   96) = (   0.0000000  -3.2299305   0.5020979), wk =   0.0039841
        k(   97) = (   0.0000000  -3.3017067   0.5020979), wk =   0.0039841
        k(   98) = (   0.0000000  -3.3734830   0.5020979), wk =   0.0039841
        k(   99) = (   0.0000000  -3.4452592   0.5020979), wk =   0.0039841
        k(  100) = (   0.0000000  -3.5170354   0.5020979), wk =   0.0039841
        k(  101) = (   0.0000000  -3.5888117   0.5020979), wk =   0.0039841
        k(  102) = (   0.0000000  -3.5900395   0.4987506), wk =   0.0039841
        k(  103) = (   0.0000000  -3.5912673   0.4954033), wk =   0.0039841
        k(  104) = (   0.0000000  -3.5924951   0.4920560), wk =   0.0039841
        k(  105) = (   0.0000000  -3.5937230   0.4887086), wk =   0.0039841
        k(  106) = (   0.0000000  -3.5949508   0.4853613), wk =   0.0039841
        k(  107) = (   0.0000000  -3.5961786   0.4820140), wk =   0.0039841
        k(  108) = (   0.0000000  -3.5974065   0.4786667), wk =   0.0039841
        k(  109) = (   0.0000000  -3.5986343   0.4753194), wk =   0.0039841
        k(  110) = (   0.0000000  -3.5998621   0.4719721), wk =   0.0039841
        k(  111) = (   0.0000000  -3.6010899   0.4686247), wk =   0.0039841
        k(  112) = (   0.0000000  -3.6023178   0.4652774), wk =   0.0039841
        k(  113) = (   0.0000000  -3.6035456   0.4619301), wk =   0.0039841
        k(  114) = (   0.0000000  -3.6047734   0.4585828), wk =   0.0039841
        k(  115) = (   0.0000000  -3.6060012   0.4552355), wk =   0.0039841
        k(  116) = (   0.0000000  -3.6072291   0.4518881), wk =   0.0039841
        k(  117) = (   0.0000000  -3.6084569   0.4485408), wk =   0.0039841
        k(  118) = (   0.0000000  -3.6096847   0.4451935), wk =   0.0039841
        k(  119) = (   0.0000000  -3.6109126   0.4418462), wk =   0.0039841
        k(  120) = (   0.0000000  -3.6121404   0.4384989), wk =   0.0039841
        k(  121) = (   0.0000000  -3.6133682   0.4351515), wk =   0.0039841
        k(  122) = (   0.0000000  -3.6145960   0.4318042), wk =   0.0039841
        k(  123) = (   0.0000000  -3.6158239   0.4284569), wk =   0.0039841
        k(  124) = (   0.0000000  -3.6170517   0.4251096), wk =   0.0039841
        k(  125) = (   0.0000000  -3.6182795   0.4217623), wk =   0.0039841
        k(  126) = (   0.0000000  -3.6195073   0.4184149), wk =   0.0039841
        k(  127) = (   0.0000000  -3.6207352   0.4150676), wk =   0.0039841
        k(  128) = (   0.0000000  -3.6219630   0.4117203), wk =   0.0039841
        k(  129) = (   0.0000000  -3.6231908   0.4083730), wk =   0.0039841
        k(  130) = (   0.0000000  -3.6244187   0.4050257), wk =   0.0039841
        k(  131) = (   0.0000000  -3.6256465   0.4016783), wk =   0.0039841
        k(  132) = (   0.0000000  -3.6268743   0.3983310), wk =   0.0039841
        k(  133) = (   0.0000000  -3.6281021   0.3949837), wk =   0.0039841
        k(  134) = (   0.0000000  -3.6293300   0.3916364), wk =   0.0039841
        k(  135) = (   0.0000000  -3.6305578   0.3882891), wk =   0.0039841
        k(  136) = (   0.0000000  -3.6317856   0.3849417), wk =   0.0039841
        k(  137) = (   0.0000000  -3.6330134   0.3815944), wk =   0.0039841
        k(  138) = (   0.0000000  -3.6342413   0.3782471), wk =   0.0039841
        k(  139) = (   0.0000000  -3.6354691   0.3748998), wk =   0.0039841
        k(  140) = (   0.0000000  -3.6366969   0.3715525), wk =   0.0039841
        k(  141) = (   0.0000000  -3.6379248   0.3682051), wk =   0.0039841
        k(  142) = (   0.0000000  -3.6391526   0.3648578), wk =   0.0039841
        k(  143) = (   0.0000000  -3.6403804   0.3615105), wk =   0.0039841
        k(  144) = (   0.0000000  -3.6416082   0.3581632), wk =   0.0039841
        k(  145) = (   0.0000000  -3.6428361   0.3548159), wk =   0.0039841
        k(  146) = (   0.0000000  -3.6440639   0.3514685), wk =   0.0039841
        k(  147) = (   0.0000000  -3.6452917   0.3481212), wk =   0.0039841
        k(  148) = (   0.0000000  -3.6465195   0.3447739), wk =   0.0039841
        k(  149) = (   0.0000000  -3.6477474   0.3414266), wk =   0.0039841
        k(  150) = (   0.0000000  -3.6489752   0.3380793), wk =   0.0039841
        k(  151) = (   0.0000000  -3.6502030   0.3347320), wk =   0.0039841
        k(  152) = (   0.0000000  -3.5771990   0.3280373), wk =   0.0039841
        k(  153) = (   0.0000000  -3.5041949   0.3213427), wk =   0.0039841
        k(  154) = (   0.0000000  -3.4311908   0.3146480), wk =   0.0039841
        k(  155) = (   0.0000000  -3.3581868   0.3079534), wk =   0.0039841
        k(  156) = (   0.0000000  -3.2851827   0.3012588), wk =   0.0039841
        k(  157) = (   0.0000000  -3.2121787   0.2945641), wk =   0.0039841
        k(  158) = (   0.0000000  -3.1391746   0.2878695), wk =   0.0039841
        k(  159) = (   0.0000000  -3.0661705   0.2811748), wk =   0.0039841
        k(  160) = (   0.0000000  -2.9931665   0.2744802), wk =   0.0039841
        k(  161) = (   0.0000000  -2.9201624   0.2677856), wk =   0.0039841
        k(  162) = (   0.0000000  -2.8471584   0.2610909), wk =   0.0039841
        k(  163) = (   0.0000000  -2.7741543   0.2543963), wk =   0.0039841
        k(  164) = (   0.0000000  -2.7011502   0.2477016), wk =   0.0039841
        k(  165) = (   0.0000000  -2.6281462   0.2410070), wk =   0.0039841
        k(  166) = (   0.0000000  -2.5551421   0.2343124), wk =   0.0039841
        k(  167) = (   0.0000000  -2.4821381   0.2276177), wk =   0.0039841
        k(  168) = (   0.0000000  -2.4091340   0.2209231), wk =   0.0039841
        k(  169) = (   0.0000000  -2.3361299   0.2142284), wk =   0.0039841
        k(  170) = (   0.0000000  -2.2631259   0.2075338), wk =   0.0039841
        k(  171) = (   0.0000000  -2.1901218   0.2008392), wk =   0.0039841
        k(  172) = (   0.0000000  -2.1171178   0.1941445), wk =   0.0039841
        k(  173) = (   0.0000000  -2.0441137   0.1874499), wk =   0.0039841
        k(  174) = (   0.0000000  -1.9711096   0.1807553), wk =   0.0039841
        k(  175) = (   0.0000000  -1.8981056   0.1740606), wk =   0.0039841
        k(  176) = (   0.0000000  -1.8251015   0.1673660), wk =   0.0039841
        k(  177) = (   0.0000000  -1.7520975   0.1606713), wk =   0.0039841
        k(  178) = (   0.0000000  -1.6790934   0.1539767), wk =   0.0039841
        k(  179) = (   0.0000000  -1.6060893   0.1472821), wk =   0.0039841
        k(  180) = (   0.0000000  -1.5330853   0.1405874), wk =   0.0039841
        k(  181) = (   0.0000000  -1.4600812   0.1338928), wk =   0.0039841
        k(  182) = (   0.0000000  -1.3870772   0.1271981), wk =   0.0039841
        k(  183) = (   0.0000000  -1.3140731   0.1205035), wk =   0.0039841
        k(  184) = (   0.0000000  -1.2410690   0.1138089), wk =   0.0039841
        k(  185) = (   0.0000000  -1.1680650   0.1071142), wk =   0.0039841
        k(  186) = (   0.0000000  -1.0950609   0.1004196), wk =   0.0039841
        k(  187) = (   0.0000000  -1.0220568   0.0937249), wk =   0.0039841
        k(  188) = (   0.0000000  -0.9490528   0.0870303), wk =   0.0039841
        k(  189) = (   0.0000000  -0.8760487   0.0803357), wk =   0.0039841
        k(  190) = (   0.0000000  -0.8030447   0.0736410), wk =   0.0039841
        k(  191) = (   0.0000000  -0.7300406   0.0669464), wk =   0.0039841
        k(  192) = (   0.0000000  -0.6570365   0.0602518), wk =   0.0039841
        k(  193) = (   0.0000000  -0.5840325   0.0535571), wk =   0.0039841
        k(  194) = (   0.0000000  -0.5110284   0.0468625), wk =   0.0039841
        k(  195) = (   0.0000000  -0.4380244   0.0401678), wk =   0.0039841
        k(  196) = (   0.0000000  -0.3650203   0.0334732), wk =   0.0039841
        k(  197) = (   0.0000000  -0.2920162   0.0267786), wk =   0.0039841
        k(  198) = (   0.0000000  -0.2190122   0.0200839), wk =   0.0039841
        k(  199) = (   0.0000000  -0.1460081   0.0133893), wk =   0.0039841
        k(  200) = (   0.0000000  -0.0730041   0.0066946), wk =   0.0039841
        k(  201) = (   0.0000000   0.0000000   0.0000000), wk =   0.0039841
        k(  202) = (   0.0632234  -0.0365020   0.0033473), wk =   0.0039841
        k(  203) = (   0.1264467  -0.0730041   0.0066946), wk =   0.0039841
        k(  204) = (   0.1896701  -0.1095061   0.0100420), wk =   0.0039841
        k(  205) = (   0.2528935  -0.1460081   0.0133893), wk =   0.0039841
        k(  206) = (   0.3161169  -0.1825102   0.0167366), wk =   0.0039841
        k(  207) = (   0.3793402  -0.2190122   0.0200839), wk =   0.0039841
        k(  208) = (   0.4425636  -0.2555142   0.0234312), wk =   0.0039841
        k(  209) = (   0.5057870  -0.2920162   0.0267786), wk =   0.0039841
        k(  210) = (   0.5690103  -0.3285183   0.0301259), wk =   0.0039841
        k(  211) = (   0.6322337  -0.3650203   0.0334732), wk =   0.0039841
        k(  212) = (   0.6954571  -0.4015223   0.0368205), wk =   0.0039841
        k(  213) = (   0.7586805  -0.4380244   0.0401678), wk =   0.0039841
        k(  214) = (   0.8219038  -0.4745264   0.0435152), wk =   0.0039841
        k(  215) = (   0.8851272  -0.5110284   0.0468625), wk =   0.0039841
        k(  216) = (   0.9483506  -0.5475305   0.0502098), wk =   0.0039841
        k(  217) = (   1.0115739  -0.5840325   0.0535571), wk =   0.0039841
        k(  218) = (   1.0747973  -0.6205345   0.0569044), wk =   0.0039841
        k(  219) = (   1.1380207  -0.6570365   0.0602518), wk =   0.0039841
        k(  220) = (   1.2012441  -0.6935386   0.0635991), wk =   0.0039841
        k(  221) = (   1.2644674  -0.7300406   0.0669464), wk =   0.0039841
        k(  222) = (   1.3276908  -0.7665426   0.0702937), wk =   0.0039841
        k(  223) = (   1.3909142  -0.8030447   0.0736410), wk =   0.0039841
        k(  224) = (   1.4541375  -0.8395467   0.0769883), wk =   0.0039841
        k(  225) = (   1.5173609  -0.8760487   0.0803357), wk =   0.0039841
        k(  226) = (   1.5805843  -0.9125508   0.0836830), wk =   0.0039841
        k(  227) = (   1.6438076  -0.9490528   0.0870303), wk =   0.0039841
        k(  228) = (   1.7070310  -0.9855548   0.0903776), wk =   0.0039841
        k(  229) = (   1.7702544  -1.0220568   0.0937249), wk =   0.0039841
        k(  230) = (   1.8334778  -1.0585589   0.0970723), wk =   0.0039841
        k(  231) = (   1.8967011  -1.0950609   0.1004196), wk =   0.0039841
        k(  232) = (   1.9599245  -1.1315629   0.1037669), wk =   0.0039841
        k(  233) = (   2.0231479  -1.1680650   0.1071142), wk =   0.0039841
        k(  234) = (   2.0863712  -1.2045670   0.1104615), wk =   0.0039841
        k(  235) = (   2.1495946  -1.2410690   0.1138089), wk =   0.0039841
        k(  236) = (   2.2128180  -1.2775711   0.1171562), wk =   0.0039841
        k(  237) = (   2.2760414  -1.3140731   0.1205035), wk =   0.0039841
        k(  238) = (   2.3392647  -1.3505751   0.1238508), wk =   0.0039841
        k(  239) = (   2.4024881  -1.3870772   0.1271981), wk =   0.0039841
        k(  240) = (   2.4657115  -1.4235792   0.1305455), wk =   0.0039841
        k(  241) = (   2.5289348  -1.4600812   0.1338928), wk =   0.0039841
        k(  242) = (   2.5921582  -1.4965832   0.1372401), wk =   0.0039841
        k(  243) = (   2.6553816  -1.5330853   0.1405874), wk =   0.0039841
        k(  244) = (   2.7186050  -1.5695873   0.1439347), wk =   0.0039841
        k(  245) = (   2.7818283  -1.6060893   0.1472821), wk =   0.0039841
        k(  246) = (   2.8450517  -1.6425914   0.1506294), wk =   0.0039841
        k(  247) = (   2.9082751  -1.6790934   0.1539767), wk =   0.0039841
        k(  248) = (   2.9714984  -1.7155954   0.1573240), wk =   0.0039841
        k(  249) = (   3.0347218  -1.7520975   0.1606713), wk =   0.0039841
        k(  250) = (   3.0979452  -1.7885995   0.1640187), wk =   0.0039841
        k(  251) = (   3.1611686  -1.8251015   0.1673660), wk =   0.0039841

                       cryst. coord.
        k(    1) = (   0.0000000   0.0000000   0.0000000), wk =   0.0039841
        k(    2) = (   0.0100000   0.0100000   0.0100000), wk =   0.0039841
        k(    3) = (   0.0200000   0.0200000   0.0200000), wk =   0.0039841
        k(    4) = (   0.0300000   0.0300000   0.0300000), wk =   0.0039841
        k(    5) = (   0.0400000   0.0400000   0.0400000), wk =   0.0039841
        k(    6) = (   0.0500000   0.0500000   0.0500000), wk =   0.0039841
        k(    7) = (   0.0600000   0.0600000   0.0600000), wk =   0.0039841
        k(    8) = (   0.0700000   0.0700000   0.0700000), wk =   0.0039841
        k(    9) = (   0.0800000   0.0800000   0.0800000), wk =   0.0039841
        k(   10) = (   0.0900000   0.0900000   0.0900000), wk =   0.0039841
        k(   11) = (   0.1000000   0.1000000   0.1000000), wk =   0.0039841
        k(   12) = (   0.1100000   0.1100000   0.1100000), wk =   0.0039841
        k(   13) = (   0.1200000   0.1200000   0.1200000), wk =   0.0039841
        k(   14) = (   0.1300000   0.1300000   0.1300000), wk =   0.0039841
        k(   15) = (   0.1400000   0.1400000   0.1400000), wk =   0.0039841
        k(   16) = (   0.1500000   0.1500000   0.1500000), wk =   0.0039841
        k(   17) = (   0.1600000   0.1600000   0.1600000), wk =   0.0039841
        k(   18) = (   0.1700000   0.1700000   0.1700000), wk =   0.0039841
        k(   19) = (   0.1800000   0.1800000   0.1800000), wk =   0.0039841
        k(   20) = (   0.1900000   0.1900000   0.1900000), wk =   0.0039841
        k(   21) = (   0.2000000   0.2000000   0.2000000), wk =   0.0039841
        k(   22) = (   0.2100000   0.2100000   0.2100000), wk =   0.0039841
        k(   23) = (   0.2200000   0.2200000   0.2200000), wk =   0.0039841
        k(   24) = (   0.2300000   0.2300000   0.2300000), wk =   0.0039841
        k(   25) = (   0.2400000   0.2400000   0.2400000), wk =   0.0039841
        k(   26) = (   0.2500000   0.2500000   0.2500000), wk =   0.0039841
        k(   27) = (   0.2600000   0.2600000   0.2600000), wk =   0.0039841
        k(   28) = (   0.2700000   0.2700000   0.2700000), wk =   0.0039841
        k(   29) = (   0.2800000   0.2800000   0.2800000), wk =   0.0039841
        k(   30) = (   0.2900000   0.2900000   0.2900000), wk =   0.0039841
        k(   31) = (   0.3000000   0.3000000   0.3000000), wk =   0.0039841
        k(   32) = (   0.3100000   0.3100000   0.3100000), wk =   0.0039841
        k(   33) = (   0.3200000   0.3200000   0.3200000), wk =   0.0039841
        k(   34) = (   0.3300000   0.3300000   0.3300000), wk =   0.0039841
        k(   35) = (   0.3400000   0.3400000   0.3400000), wk =   0.0039841
        k(   36) = (   0.3500000   0.3500000   0.3500000), wk =   0.0039841
        k(   37) = (   0.3600000   0.3600000   0.3600000), wk =   0.0039841
        k(   38) = (   0.3700000   0.3700000   0.3700000), wk =   0.0039841
        k(   39) = (   0.3800000   0.3800000   0.3800000), wk =   0.0039841
        k(   40) = (   0.3900000   0.3900000   0.3900000), wk =   0.0039841
        k(   41) = (   0.4000000   0.4000000   0.4000000), wk =   0.0039841
        k(   42) = (   0.4100000   0.4100000   0.4100000), wk =   0.0039841
        k(   43) = (   0.4200000   0.4200000   0.4200000), wk =   0.0039841
        k(   44) = (   0.4300000   0.4300000   0.4300000), wk =   0.0039841
        k(   45) = (   0.4400000   0.4400000   0.4400000), wk =   0.0039841
        k(   46) = (   0.4500000   0.4500000   0.4500000), wk =   0.0039841
        k(   47) = (   0.4600000   0.4600000   0.4600000), wk =   0.0039841
        k(   48) = (   0.4700000   0.4700000   0.4700000), wk =   0.0039841
        k(   49) = (   0.4800000   0.4800000   0.4800000), wk =   0.0039841
        k(   50) = (   0.4900000   0.4900000   0.4900000), wk =   0.0039841
        k(   51) = (   0.5000000   0.5000000   0.5000000), wk =   0.0039841
        k(   52) = (   0.5032773   0.4934455   0.5032773), wk =   0.0039841
        k(   53) = (   0.5065545   0.4868909   0.5065545), wk =   0.0039841
        k(   54) = (   0.5098318   0.4803364   0.5098318), wk =   0.0039841
        k(   55) = (   0.5131091   0.4737818   0.5131091), wk =   0.0039841
        k(   56) = (   0.5163864   0.4672273   0.5163864), wk =   0.0039841
        k(   57) = (   0.5196636   0.4606727   0.5196636), wk =   0.0039841
        k(   58) = (   0.5229409   0.4541182   0.5229409), wk =   0.0039841
        k(   59) = (   0.5262182   0.4475637   0.5262182), wk =   0.0039841
        k(   60) = (   0.5294954   0.4410091   0.5294954), wk =   0.0039841
        k(   61) = (   0.5327727   0.4344546   0.5327727), wk =   0.0039841
        k(   62) = (   0.5360500   0.4279000   0.5360500), wk =   0.0039841
        k(   63) = (   0.5393273   0.4213455   0.5393273), wk =   0.0039841
        k(   64) = (   0.5426045   0.4147909   0.5426045), wk =   0.0039841
        k(   65) = (   0.5458818   0.4082364   0.5458818), wk =   0.0039841
        k(   66) = (   0.5491591   0.4016819   0.5491591), wk =   0.0039841
        k(   67) = (   0.5524363   0.3951273   0.5524363), wk =   0.0039841
        k(   68) = (   0.5557136   0.3885728   0.5557136), wk =   0.0039841
        k(   69) = (   0.5589909   0.3820182   0.5589909), wk =   0.0039841
        k(   70) = (   0.5622682   0.3754637   0.5622682), wk =   0.0039841
        k(   71) = (   0.5655454   0.3689091   0.5655454), wk =   0.0039841
        k(   72) = (   0.5688227   0.3623546   0.5688227), wk =   0.0039841
        k(   73) = (   0.5721000   0.3558001   0.5721000), wk =   0.0039841
        k(   74) = (   0.5753772   0.3492455   0.5753772), wk =   0.0039841
        k(   75) = (   0.5786545   0.3426910   0.5786545), wk =   0.0039841
        k(   76) = (   0.5819318   0.3361364   0.5819318), wk =   0.0039841
        k(   77) = (   0.5852091   0.3295819   0.5852091), wk =   0.0039841
        k(   78) = (   0.5884863   0.3230274   0.5884863), wk =   0.0039841
        k(   79) = (   0.5917636   0.3164728   0.5917636), wk =   0.0039841
        k(   80) = (   0.5950409   0.3099183   0.5950409), wk =   0.0039841
        k(   81) = (   0.5983181   0.3033637   0.5983181), wk =   0.0039841
        k(   82) = (   0.6015954   0.2968092   0.6015954), wk =   0.0039841
        k(   83) = (   0.6048727   0.2902546   0.6048727), wk =   0.0039841
        k(   84) = (   0.6081500   0.2837001   0.6081500), wk =   0.0039841
        k(   85) = (   0.6114272   0.2771456   0.6114272), wk =   0.0039841
        k(   86) = (   0.6147045   0.2705910   0.6147045), wk =   0.0039841
        k(   87) = (   0.6179818   0.2640365   0.6179818), wk =   0.0039841
        k(   88) = (   0.6212590   0.2574819   0.6212590), wk =   0.0039841
        k(   89) = (   0.6245363   0.2509274   0.6245363), wk =   0.0039841
        k(   90) = (   0.6278136   0.2443728   0.6278136), wk =   0.0039841
        k(   91) = (   0.6310909   0.2378183   0.6310909), wk =   0.0039841
        k(   92) = (   0.6343681   0.2312638   0.6343681), wk =   0.0039841
        k(   93) = (   0.6376454   0.2247092   0.6376454), wk =   0.0039841
        k(   94) = (   0.6409227   0.2181547   0.6409227), wk =   0.0039841
        k(   95) = (   0.6441999   0.2116001   0.6441999), wk =   0.0039841
        k(   96) = (   0.6474772   0.2050456   0.6474772), wk =   0.0039841
        k(   97) = (   0.6507545   0.1984910   0.6507545), wk =   0.0039841
        k(   98) = (   0.6540317   0.1919365   0.6540317), wk =   0.0039841
        k(   99) = (   0.6573090   0.1853820   0.6573090), wk =   0.0039841
        k(  100) = (   0.6605863   0.1788274   0.6605863), wk =   0.0039841
        k(  101) = (   0.6638636   0.1722729   0.6638636), wk =   0.0039841
        k(  102) = (   0.6605863   0.1688274   0.6605863), wk =   0.0039841
        k(  103) = (   0.6573090   0.1653820   0.6573090), wk =   0.0039841
        k(  104) = (   0.6540317   0.1619365   0.6540317), wk =   0.0039841
        k(  105) = (   0.6507545   0.1584910   0.6507545), wk =   0.0039841
        k(  106) = (   0.6474772   0.1550456   0.6474772), wk =   0.0039841
        k(  107) = (   0.6441999   0.1516001   0.6441999), wk =   0.0039841
        k(  108) = (   0.6409227   0.1481547   0.6409227), wk =   0.0039841
        k(  109) = (   0.6376454   0.1447092   0.6376454), wk =   0.0039841
        k(  110) = (   0.6343681   0.1412638   0.6343681), wk =   0.0039841
        k(  111) = (   0.6310909   0.1378183   0.6310909), wk =   0.0039841
        k(  112) = (   0.6278136   0.1343728   0.6278136), wk =   0.0039841
        k(  113) = (   0.6245363   0.1309274   0.6245363), wk =   0.0039841
        k(  114) = (   0.6212590   0.1274819   0.6212590), wk =   0.0039841
        k(  115) = (   0.6179818   0.1240365   0.6179818), wk =   0.0039841
        k(  116) = (   0.6147045   0.1205910   0.6147045), wk =   0.0039841
        k(  117) = (   0.6114272   0.1171456   0.6114272), wk =   0.0039841
        k(  118) = (   0.6081500   0.1137001   0.6081500), wk =   0.0039841
        k(  119) = (   0.6048727   0.1102546   0.6048727), wk =   0.0039841
        k(  120) = (   0.6015954   0.1068092   0.6015954), wk =   0.0039841
        k(  121) = (   0.5983181   0.1033637   0.5983181), wk =   0.0039841
        k(  122) = (   0.5950409   0.0999183   0.5950409), wk =   0.0039841
        k(  123) = (   0.5917636   0.0964728   0.5917636), wk =   0.0039841
        k(  124) = (   0.5884863   0.0930274   0.5884863), wk =   0.0039841
        k(  125) = (   0.5852091   0.0895819   0.5852091), wk =   0.0039841
        k(  126) = (   0.5819318   0.0861364   0.5819318), wk =   0.0039841
        k(  127) = (   0.5786545   0.0826910   0.5786545), wk =   0.0039841
        k(  128) = (   0.5753772   0.0792455   0.5753772), wk =   0.0039841
        k(  129) = (   0.5721000   0.0758001   0.5721000), wk =   0.0039841
        k(  130) = (   0.5688227   0.0723546   0.5688227), wk =   0.0039841
        k(  131) = (   0.5655454   0.0689091   0.5655454), wk =   0.0039841
        k(  132) = (   0.5622682   0.0654637   0.5622682), wk =   0.0039841
        k(  133) = (   0.5589909   0.0620182   0.5589909), wk =   0.0039841
        k(  134) = (   0.5557136   0.0585728   0.5557136), wk =   0.0039841
        k(  135) = (   0.5524363   0.0551273   0.5524363), wk =   0.0039841
        k(  136) = (   0.5491591   0.0516819   0.5491591), wk =   0.0039841
        k(  137) = (   0.5458818   0.0482364   0.5458818), wk =   0.0039841
        k(  138) = (   0.5426045   0.0447909   0.5426045), wk =   0.0039841
        k(  139) = (   0.5393273   0.0413455   0.5393273), wk =   0.0039841
        k(  140) = (   0.5360500   0.0379000   0.5360500), wk =   0.0039841
        k(  141) = (   0.5327727   0.0344546   0.5327727), wk =   0.0039841
        k(  142) = (   0.5294954   0.0310091   0.5294954), wk =   0.0039841
        k(  143) = (   0.5262182   0.0275637   0.5262182), wk =   0.0039841
        k(  144) = (   0.5229409   0.0241182   0.5229409), wk =   0.0039841
        k(  145) = (   0.5196636   0.0206727   0.5196636), wk =   0.0039841
        k(  146) = (   0.5163864   0.0172273   0.5163864), wk =   0.0039841
        k(  147) = (   0.5131091   0.0137818   0.5131091), wk =   0.0039841
        k(  148) = (   0.5098318   0.0103364   0.5098318), wk =   0.0039841
        k(  149) = (   0.5065545   0.0068909   0.5065545), wk =   0.0039841
        k(  150) = (   0.5032773   0.0034455   0.5032773), wk =   0.0039841
        k(  151) = (   0.5000000  -0.0000000   0.5000000), wk =   0.0039841
        k(  152) = (   0.4900000  -0.0000000   0.4900000), wk =   0.0039841
        k(  153) = (   0.4800000  -0.0000000   0.4800000), wk =   0.0039841
        k(  154) = (   0.4700000  -0.0000000   0.4700000), wk =   0.0039841
        k(  155) = (   0.4600000   0.0000000   0.4600000), wk =   0.0039841
        k(  156) = (   0.4500000  -0.0000000   0.4500000), wk =   0.0039841
        k(  157) = (   0.4400000  -0.0000000   0.4400000), wk =   0.0039841
        k(  158) = (   0.4300000   0.0000000   0.4300000), wk =   0.0039841
        k(  159) = (   0.4200000  -0.0000000   0.4200000), wk =   0.0039841
        k(  160) = (   0.4100000   0.0000000   0.4100000), wk =   0.0039841
        k(  161) = (   0.4000000  -0.0000000   0.4000000), wk =   0.0039841
        k(  162) = (   0.3900000   0.0000000   0.3900000), wk =   0.0039841
        k(  163) = (   0.3800000  -0.0000000   0.3800000), wk =   0.0039841
        k(  164) = (   0.3700000  -0.0000000   0.3700000), wk =   0.0039841
        k(  165) = (   0.3600000  -0.0000000   0.3600000), wk =   0.0039841
        k(  166) = (   0.3500000  -0.0000000   0.3500000), wk =   0.0039841
        k(  167) = (   0.3400000   0.0000000   0.3400000), wk =   0.0039841
        k(  168) = (   0.3300000  -0.0000000   0.3300000), wk =   0.0039841
        k(  169) = (   0.3200000  -0.0000000   0.3200000), wk =   0.0039841
        k(  170) = (   0.3100000  -0.0000000   0.3100000), wk =   0.0039841
        k(  171) = (   0.3000000  -0.0000000   0.3000000), wk =   0.0039841
        k(  172) = (   0.2900000  -0.0000000   0.2900000), wk =   0.0039841
        k(  173) = (   0.2800000   0.0000000   0.2800000), wk =   0.0039841
        k(  174) = (   0.2700000   0.0000000   0.2700000), wk =   0.0039841
        k(  175) = (   0.2600000  -0.0000000   0.2600000), wk =   0.0039841
        k(  176) = (   0.2500000  -0.0000000   0.2500000), wk =   0.0039841
        k(  177) = (   0.2400000  -0.0000000   0.2400000), wk =   0.0039841
        k(  178) = (   0.2300000   0.0000000   0.2300000), wk =   0.0039841
        k(  179) = (   0.2200000  -0.0000000   0.2200000), wk =   0.0039841
        k(  180) = (   0.2100000   0.0000000   0.2100000), wk =   0.0039841
        k(  181) = (   0.2000000  -0.0000000   0.2000000), wk =   0.0039841
        k(  182) = (   0.1900000  -0.0000000   0.1900000), wk =   0.0039841
        k(  183) = (   0.1800000  -0.0000000   0.1800000), wk =   0.0039841
        k(  184) = (   0.1700000   0.0000000   0.1700000), wk =   0.0039841
        k(  185) = (   0.1600000  -0.0000000   0.1600000), wk =   0.0039841
        k(  186) = (   0.1500000  -0.0000000   0.1500000), wk =   0.0039841
        k(  187) = (   0.1400000   0.0000000   0.1400000), wk =   0.0039841
        k(  188) = (   0.1300000  -0.0000000   0.1300000), wk =   0.0039841
        k(  189) = (   0.1200000  -0.0000000   0.1200000), wk =   0.0039841
        k(  190) = (   0.1100000  -0.0000000   0.1100000), wk =   0.0039841
        k(  191) = (   0.1000000  -0.0000000   0.1000000), wk =   0.0039841
        k(  192) = (   0.0900000  -0.0000000   0.0900000), wk =   0.0039841
        k(  193) = (   0.0800000  -0.0000000   0.0800000), wk =   0.0039841
        k(  194) = (   0.0700000   0.0000000   0.0700000), wk =   0.0039841
        k(  195) = (   0.0600000  -0.0000000   0.0600000), wk =   0.0039841
        k(  196) = (   0.0500000  -0.0000000   0.0500000), wk =   0.0039841
        k(  197) = (   0.0400000  -0.0000000   0.0400000), wk =   0.0039841
        k(  198) = (   0.0300000  -0.0000000   0.0300000), wk =   0.0039841
        k(  199) = (   0.0200000   0.0000000   0.0200000), wk =   0.0039841
        k(  200) = (   0.0100000   0.0000000   0.0100000), wk =   0.0039841
        k(  201) = (   0.0000000   0.0000000   0.0000000), wk =   0.0039841
        k(  202) = (   0.0100000  -0.0000000   0.0000000), wk =   0.0039841
        k(  203) = (   0.0200000  -0.0000000   0.0000000), wk =   0.0039841
        k(  204) = (   0.0300000  -0.0000000   0.0000000), wk =   0.0039841
        k(  205) = (   0.0400000  -0.0000000   0.0000000), wk =   0.0039841
        k(  206) = (   0.0500000  -0.0000000  -0.0000000), wk =   0.0039841
        k(  207) = (   0.0600000  -0.0000000   0.0000000), wk =   0.0039841
        k(  208) = (   0.0700000   0.0000000   0.0000000), wk =   0.0039841
        k(  209) = (   0.0800000  -0.0000000   0.0000000), wk =   0.0039841
        k(  210) = (   0.0900000  -0.0000000  -0.0000000), wk =   0.0039841
        k(  211) = (   0.1000000  -0.0000000  -0.0000000), wk =   0.0039841
        k(  212) = (   0.1100000  -0.0000000  -0.0000000), wk =   0.0039841
        k(  213) = (   0.1200000  -0.0000000   0.0000000), wk =   0.0039841
        k(  214) = (   0.1300000  -0.0000000   0.0000000), wk =   0.0039841
        k(  215) = (   0.1400000   0.0000000   0.0000000), wk =   0.0039841
        k(  216) = (   0.1500000  -0.0000000   0.0000000), wk =   0.0039841
        k(  217) = (   0.1600000  -0.0000000   0.0000000), wk =   0.0039841
        k(  218) = (   0.1700000  -0.0000000   0.0000000), wk =   0.0039841
        k(  219) = (   0.1800000  -0.0000000  -0.0000000), wk =   0.0039841
        k(  220) = (   0.1900000  -0.0000000   0.0000000), wk =   0.0039841
        k(  221) = (   0.2000000  -0.0000000  -0.0000000), wk =   0.0039841
        k(  222) = (   0.2100000  -0.0000000  -0.0000000), wk =   0.0039841
        k(  223) = (   0.2200000  -0.0000000  -0.0000000), wk =   0.0039841
        k(  224) = (   0.2300000   0.0000000  -0.0000000), wk =   0.0039841
        k(  225) = (   0.2400000  -0.0000000   0.0000000), wk =   0.0039841
        k(  226) = (   0.2500000  -0.0000000   0.0000000), wk =   0.0039841
        k(  227) = (   0.2600000  -0.0000000   0.0000000), wk =   0.0039841
        k(  228) = (   0.2700000   0.0000000   0.0000000), wk =   0.0039841
        k(  229) = (   0.2800000   0.0000000   0.0000000), wk =   0.0039841
        k(  230) = (   0.2900000  -0.0000000  -0.0000000), wk =   0.0039841
        k(  231) = (   0.3000000  -0.0000000   0.0000000), wk =   0.0039841
        k(  232) = (   0.3100000  -0.0000000  -0.0000000), wk =   0.0039841
        k(  233) = (   0.3200000  -0.0000000   0.0000000), wk =   0.0039841
        k(  234) = (   0.3300000   0.0000000  -0.0000000), wk =   0.0039841
        k(  235) = (   0.3400000  -0.0000000   0.0000000), wk =   0.0039841
        k(  236) = (   0.3500000  -0.0000000  -0.0000000), wk =   0.0039841
        k(  237) = (   0.3600000  -0.0000000  -0.0000000), wk =   0.0039841
        k(  238) = (   0.3700000  -0.0000000  -0.0000000), wk =   0.0039841
        k(  239) = (   0.3800000  -0.0000000   0.0000000), wk =   0.0039841
        k(  240) = (   0.3900000   0.0000000   0.0000000), wk =   0.0039841
        k(  241) = (   0.4000000  -0.0000000  -0.0000000), wk =   0.0039841
        k(  242) = (   0.4100000   0.0000000   0.0000000), wk =   0.0039841
        k(  243) = (   0.4200000  -0.0000000  -0.0000000), wk =   0.0039841
        k(  244) = (   0.4300000   0.0000000   0.0000000), wk =   0.0039841
        k(  245) = (   0.4400000  -0.0000000  -0.0000000), wk =   0.0039841
        k(  246) = (   0.4500000  -0.0000000  -0.0000000), wk =   0.0039841
        k(  247) = (   0.4600000   0.0000000  -0.0000000), wk =   0.0039841
        k(  248) = (   0.4700000  -0.0000000  -0.0000000), wk =   0.0039841
        k(  249) = (   0.4800000  -0.0000000   0.0000000), wk =   0.0039841
        k(  250) = (   0.4900000  -0.0000000  -0.0000000), wk =   0.0039841
        k(  251) = (   0.5000000  -0.0000000   0.0000000), wk =   0.0039841

     Dense  grid:   187971 G-vectors     FFT dimensions: ( 256, 256, 256)

     Dynamical RAM for                 wfc:       4.48 MB

     Dynamical RAM for     wfc (w. buffer):       4.48 MB

     Dynamical RAM for             U proj.:       0.99 MB

     Dynamical RAM for  U proj. (w. buff.):       0.99 MB

     Dynamical RAM for           str. fact:       0.36 MB

     Dynamical RAM for           local pot:       0.00 MB

     Dynamical RAM for          nlocal pot:       5.33 MB

     Dynamical RAM for                qrad:      13.03 MB

     Dynamical RAM for          rho,v,vnew:      49.08 MB

     Dynamical RAM for           G-vectors:       0.38 MB

     Dynamical RAM for          h,s,v(r/c):       1.83 MB

     Dynamical RAM for          <psi|beta>:       2.91 MB

     Dynamical RAM for                 psi:       8.96 MB

     Dynamical RAM for                hpsi:       8.96 MB

     Dynamical RAM for                spsi:       8.96 MB

     Dynamical RAM for      wfcinit/wfcrot:       7.64 MB

     Dynamical RAM for           addusdens:      55.66 MB

     Estimated static dynamical RAM per process >     106.09 MB

     Estimated max dynamical RAM per process >     161.75 MB

     Estimated total dynamical RAM >       5.05 GB

     Check: negative core charge=   -0.000001
     Generating pointlists ...
     new r_m :   0.0448 (alat units)  2.3181 (a.u.) for type    1
     new r_m :   0.0448 (alat units)  2.3181 (a.u.) for type    2
     new r_m :   0.0456 (alat units)  2.3625 (a.u.) for type    3
     new r_m :   0.0448 (alat units)  2.3181 (a.u.) for type    4

     The potential is recalculated from file :
     ./tmp/MnBi2Te4.save/charge-density

 --- in v_hubbard ---
Hub. E (dc, noflip, flip, total)    6.5944   6.6779  -0.0003   0.0831
 -------

     STARTING HUBBARD OCCUPATIONS:

     ================= HUBBARD OCCUPATIONS ================
     ------------------------ ATOM    1 ------------------------
     Tr[ns(  1)] (up, down, total) =   4.97490  0.28730  5.26220
     eigenvalues:
       0.017  0.018  0.019  0.115  0.119  0.990  0.991  0.998  0.998  0.998
     eigenvectors (columns):
      -0.000  0.000  0.008 -0.010  0.000 -0.000  0.000  0.000  1.000  0.000
      -0.000 -0.000  0.000 -0.000  0.000  0.048 -0.000 -0.000 -0.000 -0.000
      -0.010 -0.007  0.000 -0.000  0.005  0.527 -0.503  0.469 -0.000 -0.496
       0.000  0.005 -0.000  0.000  0.005 -0.467  0.496  0.529 -0.000 -0.503
       0.000  0.000  0.000 -0.000  0.000 -0.042  0.000 -0.000 -0.000 -0.000
       0.015  0.000  0.000  0.000 -0.000  0.001 -0.000 -0.000 -0.000 -0.000
       0.000 -0.439  0.394 -0.587 -0.555  0.000  0.006 -0.000 -0.009 -0.005
      -0.000 -0.000 -0.000  0.000 -0.000 -0.000 -0.000  0.000 -0.000 -0.000
      -0.000 -0.000 -0.000 -0.000  0.000  0.000  0.000  0.000 -0.000 -0.000
       0.000 -0.555  0.587  0.394  0.439  0.000  0.006 -0.000 -0.001  0.005
     occupations, | n_(i1, i2)^(sigma1, sigma2) |:
       0.998  0.000  0.000  0.000  0.000  0.000  0.008  0.008  0.001  0.001
       0.000  0.994  0.000  0.000  0.004  0.010  0.001  0.001  0.005  0.005
       0.000  0.000  0.994  0.004  0.000  0.010  0.001  0.001  0.005  0.005
       0.000  0.000  0.004  0.995  0.000  0.000  0.005  0.005  0.001  0.001
       0.000  0.004  0.000  0.000  0.995  0.000  0.005  0.005  0.001  0.001
       0.000  0.010  0.010  0.000  0.000  0.017  0.000  0.000  0.000  0.000
       0.008  0.001  0.001  0.005  0.005  0.000  0.083  0.003  0.002  0.047
       0.008  0.001  0.001  0.005  0.005  0.000  0.003  0.083  0.047  0.002
       0.001  0.005  0.005  0.001  0.001  0.000  0.002  0.047  0.053  0.004
       0.001  0.005  0.005  0.001  0.001  0.000  0.047  0.002  0.004  0.053
     Atomic magnetic moment mx, my, mz =     0.000000   -0.000000    4.687608
     ------------------------ ATOM    2 ------------------------
     Tr[ns(  2)] (up, down, total) =   0.28765  4.97496  5.26261
     eigenvalues:
       0.017  0.018  0.019  0.115  0.119  0.990  0.991  0.998  0.998  0.998
     eigenvectors (columns):
      -1.000  0.000 -0.000  0.000 -0.000  0.011 -0.000  0.009  0.000  0.000
      -0.000 -0.000  0.000  0.084 -0.000  0.000 -0.000  0.000 -0.000 -0.000
       0.000  0.439 -0.394  0.581 -0.555 -0.000 -0.006 -0.000  0.009  0.005
       0.000  0.555 -0.587 -0.390  0.439 -0.000 -0.006  0.000  0.001 -0.005
      -0.000 -0.000  0.000 -0.056  0.000  0.000 -0.000 -0.000 -0.000  0.000
       0.000  0.000 -0.000 -0.001  0.000  0.000  0.000 -0.000 -0.000  0.000
      -0.010 -0.007 -0.000  0.000 -0.004 -0.529 -0.504 -0.469 -0.000 -0.496
       0.000  0.000 -0.000 -0.000 -0.000  0.000 -0.000 -0.000  0.000  0.000
      -0.000  0.000  0.000 -0.000  0.000 -0.000  0.000 -0.000  0.000  0.000
       0.000  0.005  0.000 -0.000 -0.006  0.469  0.496 -0.529 -0.000 -0.504
     occupations, | n_(i1, i2)^(sigma1, sigma2) |:
       0.017  0.000  0.000  0.000  0.000  0.000  0.010  0.010  0.000  0.000
       0.000  0.083  0.003  0.002  0.047  0.008  0.001  0.001  0.005  0.005
       0.000  0.003  0.083  0.047  0.002  0.008  0.001  0.001  0.005  0.005
       0.000  0.002  0.047  0.053  0.004  0.001  0.005  0.005  0.001  0.001
       0.000  0.047  0.002  0.004  0.053  0.001  0.005  0.005  0.001  0.001
       0.000  0.008  0.008  0.001  0.001  0.998  0.000  0.000  0.000  0.000
       0.010  0.001  0.001  0.005  0.005  0.000  0.994  0.000  0.000  0.004
       0.010  0.001  0.001  0.005  0.005  0.000  0.000  0.994  0.004  0.000
       0.000  0.005  0.005  0.001  0.001  0.000  0.000  0.004  0.995  0.000
       0.000  0.005  0.005  0.001  0.001  0.000  0.004  0.000  0.000  0.995
     Atomic magnetic moment mx, my, mz =    -0.000000    0.000000   -4.687306

     Number of occupied Hubbard levels =   10.5248

     Atomic wfc used for Hubbard projectors are orthogonalized

     Starting wfcs are  176 randomized atomic wfcs +   24 random wfcs
     Checking if some PAW data can be deallocated... 
       PAW data deallocated on   29 nodes for type:  1
       PAW data deallocated on   29 nodes for type:  2
       PAW data deallocated on   22 nodes for type:  3
       PAW data deallocated on   16 nodes for type:  4

     Band Structure Calculation
     Davidson diagonalization with overlap

     Computing kpt #:     1  of   251
     total cpu time spent up to now is      382.0 secs

     Computing kpt #:     2  of   251
     total cpu time spent up to now is      690.2 secs

     Computing kpt #:     3  of   251
     total cpu time spent up to now is      997.7 secs

     Computing kpt #:     4  of   251
     total cpu time spent up to now is     1307.1 secs

     Computing kpt #:     5  of   251
     total cpu time spent up to now is     1615.5 secs

     Computing kpt #:     6  of   251
     total cpu time spent up to now is     1923.6 secs

     Computing kpt #:     7  of   251
     total cpu time spent up to now is     2234.3 secs

     Computing kpt #:     8  of   251
     total cpu time spent up to now is     2544.4 secs

     Computing kpt #:     9  of   251
     total cpu time spent up to now is     2853.9 secs

     Computing kpt #:    10  of   251
     total cpu time spent up to now is     3166.5 secs

     Computing kpt #:    11  of   251
     total cpu time spent up to now is     3477.8 secs

     Computing kpt #:    12  of   251
     total cpu time spent up to now is     3794.9 secs

     Computing kpt #:    13  of   251
     total cpu time spent up to now is     4110.7 secs

     Computing kpt #:    14  of   251
     total cpu time spent up to now is     4425.7 secs

     Computing kpt #:    15  of   251
     total cpu time spent up to now is     4741.8 secs

     Computing kpt #:    16  of   251
     total cpu time spent up to now is     5057.9 secs

     Computing kpt #:    17  of   251
     total cpu time spent up to now is     5353.1 secs

     Computing kpt #:    18  of   251
     total cpu time spent up to now is     5649.4 secs

     Computing kpt #:    19  of   251
     total cpu time spent up to now is     5970.9 secs

     Computing kpt #:    20  of   251
     total cpu time spent up to now is     6288.5 secs

     Computing kpt #:    21  of   251
     total cpu time spent up to now is     6611.2 secs

     Computing kpt #:    22  of   251
     total cpu time spent up to now is     6934.9 secs

     Computing kpt #:    23  of   251
     total cpu time spent up to now is     7235.6 secs

     Computing kpt #:    24  of   251
     total cpu time spent up to now is     7562.3 secs

     Computing kpt #:    25  of   251
     total cpu time spent up to now is     8225.6 secs

     Computing kpt #:    26  of   251
     total cpu time spent up to now is     8564.0 secs

     Computing kpt #:    27  of   251
     total cpu time spent up to now is     8891.4 secs

     Computing kpt #:    28  of   251
     total cpu time spent up to now is     9214.4 secs

     Computing kpt #:    29  of   251
     total cpu time spent up to now is     9539.2 secs

     Computing kpt #:    30  of   251
     total cpu time spent up to now is     9861.2 secs

     Computing kpt #:    31  of   251
     total cpu time spent up to now is    10185.5 secs

     Computing kpt #:    32  of   251
     total cpu time spent up to now is    10510.7 secs

     Computing kpt #:    33  of   251
     total cpu time spent up to now is    10843.2 secs

     Computing kpt #:    34  of   251
     total cpu time spent up to now is    11195.9 secs

     Computing kpt #:    35  of   251
     total cpu time spent up to now is    11606.7 secs

     Computing kpt #:    36  of   251
     total cpu time spent up to now is    12435.4 secs

     Computing kpt #:    37  of   251
     total cpu time spent up to now is    13266.7 secs

     Computing kpt #:    38  of   251
     total cpu time spent up to now is    14100.0 secs

     Computing kpt #:    39  of   251
     total cpu time spent up to now is    14931.0 secs

     Computing kpt #:    40  of   251
     total cpu time spent up to now is    15769.9 secs

     Computing kpt #:    41  of   251
     total cpu time spent up to now is    16598.9 secs

     Computing kpt #:    42  of   251
     total cpu time spent up to now is    16980.4 secs

     Computing kpt #:    43  of   251
     total cpu time spent up to now is    17332.7 secs

     Computing kpt #:    44  of   251
     c_bands:  1 eigenvalues not converged
     total cpu time spent up to now is    17713.1 secs

     Computing kpt #:    45  of   251
     total cpu time spent up to now is    18092.3 secs

     Computing kpt #:    46  of   251
     total cpu time spent up to now is    18469.8 secs

     Computing kpt #:    47  of   251
     c_bands:  2 eigenvalues not converged
     total cpu time spent up to now is    18845.3 secs

     Computing kpt #:    48  of   251
     c_bands:  2 eigenvalues not converged
     total cpu time spent up to now is    19227.1 secs

     Computing kpt #:    49  of   251
     c_bands:  2 eigenvalues not converged
     total cpu time spent up to now is    19608.3 secs

     Computing kpt #:    50  of   251
     c_bands:  2 eigenvalues not converged
     total cpu time spent up to now is    19985.0 secs

     Computing kpt #:    51  of   251
     c_bands:  2 eigenvalues not converged
     total cpu time spent up to now is    20362.5 secs

     Computing kpt #:    52  of   251
     c_bands:  1 eigenvalues not converged
     total cpu time spent up to now is    20746.6 secs

     Computing kpt #:    53  of   251
     total cpu time spent up to now is    21114.5 secs

     Computing kpt #:    54  of   251
     total cpu time spent up to now is    21484.9 secs

     Computing kpt #:    55  of   251
     total cpu time spent up to now is    21854.4 secs

     Computing kpt #:    56  of   251
     total cpu time spent up to now is    22224.3 secs

     Computing kpt #:    57  of   251
     total cpu time spent up to now is    22600.2 secs

     Computing kpt #:    58  of   251
     total cpu time spent up to now is    22978.6 secs

     Computing kpt #:    59  of   251
     total cpu time spent up to now is    23355.6 secs

     Computing kpt #:    60  of   251
     total cpu time spent up to now is    23733.4 secs

     Computing kpt #:    61  of   251
     total cpu time spent up to now is    24103.4 secs

     Computing kpt #:    62  of   251
     c_bands:  2 eigenvalues not converged
     total cpu time spent up to now is    24500.5 secs

     Computing kpt #:    63  of   251
     c_bands:  1 eigenvalues not converged
     total cpu time spent up to now is    24896.7 secs

     Computing kpt #:    64  of   251
     total cpu time spent up to now is    25292.3 secs

     Computing kpt #:    65  of   251
     total cpu time spent up to now is    25663.8 secs

     Computing kpt #:    66  of   251
     total cpu time spent up to now is    26055.9 secs

     Computing kpt #:    67  of   251
     total cpu time spent up to now is    26396.8 secs

     Computing kpt #:    68  of   251
     total cpu time spent up to now is    26737.6 secs

     Computing kpt #:    69  of   251
     total cpu time spent up to now is    27247.7 secs

     Computing kpt #:    70  of   251
     total cpu time spent up to now is    28083.9 secs

     Computing kpt #:    71  of   251
     total cpu time spent up to now is    28854.1 secs

     Computing kpt #:    72  of   251
     total cpu time spent up to now is    29725.4 secs

     Computing kpt #:    73  of   251
     total cpu time spent up to now is    30601.6 secs

     Computing kpt #:    74  of   251
     total cpu time spent up to now is    31370.8 secs

     Computing kpt #:    75  of   251
     total cpu time spent up to now is    32129.6 secs

     Computing kpt #:    76  of   251
     total cpu time spent up to now is    32886.0 secs

     Computing kpt #:    77  of   251
     total cpu time spent up to now is    33643.1 secs

     Computing kpt #:    78  of   251
     total cpu time spent up to now is    34388.2 secs

     Computing kpt #:    79  of   251
     total cpu time spent up to now is    35130.7 secs

     Computing kpt #:    80  of   251
     total cpu time spent up to now is    35866.5 secs

     Computing kpt #:    81  of   251
     total cpu time spent up to now is    36610.0 secs

     Computing kpt #:    82  of   251
     total cpu time spent up to now is    37342.8 secs

     Computing kpt #:    83  of   251
     total cpu time spent up to now is    38077.6 secs

     Computing kpt #:    84  of   251
     total cpu time spent up to now is    38803.0 secs

     Computing kpt #:    85  of   251
     total cpu time spent up to now is    39531.0 secs

     Computing kpt #:    86  of   251
     total cpu time spent up to now is    40316.0 secs

     Computing kpt #:    87  of   251
     total cpu time spent up to now is    41043.9 secs

     Computing kpt #:    88  of   251
     total cpu time spent up to now is    41769.7 secs

     Computing kpt #:    89  of   251
     total cpu time spent up to now is    42441.3 secs

     Computing kpt #:    90  of   251
     total cpu time spent up to now is    42747.0 secs

     Computing kpt #:    91  of   251
     total cpu time spent up to now is    43062.1 secs

     Computing kpt #:    92  of   251
     total cpu time spent up to now is    43376.5 secs

     Computing kpt #:    93  of   251
     total cpu time spent up to now is    43691.1 secs

     Computing kpt #:    94  of   251
     total cpu time spent up to now is    44000.6 secs

     Computing kpt #:    95  of   251
     total cpu time spent up to now is    44289.0 secs

     Computing kpt #:    96  of   251
     total cpu time spent up to now is    44598.3 secs

     Computing kpt #:    97  of   251
     total cpu time spent up to now is    44931.7 secs

     Computing kpt #:    98  of   251
     total cpu time spent up to now is    45241.6 secs

     Computing kpt #:    99  of   251
     total cpu time spent up to now is    45551.0 secs

     Computing kpt #:   100  of   251
     total cpu time spent up to now is    45833.6 secs

     Computing kpt #:   101  of   251
     total cpu time spent up to now is    46115.8 secs

     Computing kpt #:   102  of   251
     total cpu time spent up to now is    46423.6 secs

     Computing kpt #:   103  of   251
     total cpu time spent up to now is    46705.0 secs

     Computing kpt #:   104  of   251
     total cpu time spent up to now is    46986.7 secs

     Computing kpt #:   105  of   251
     total cpu time spent up to now is    47268.7 secs

     Computing kpt #:   106  of   251
     total cpu time spent up to now is    47553.4 secs

     Computing kpt #:   107  of   251
     total cpu time spent up to now is    47861.0 secs

     Computing kpt #:   108  of   251
     total cpu time spent up to now is    48276.5 secs

     Computing kpt #:   109  of   251
     total cpu time spent up to now is    48583.3 secs

     Computing kpt #:   110  of   251
     total cpu time spent up to now is    48892.1 secs

     Computing kpt #:   111  of   251
     total cpu time spent up to now is    49173.2 secs

     Computing kpt #:   112  of   251
     total cpu time spent up to now is    49458.5 secs

     Computing kpt #:   113  of   251
     total cpu time spent up to now is    49765.5 secs

     Computing kpt #:   114  of   251
     total cpu time spent up to now is    50073.0 secs

     Computing kpt #:   115  of   251
     total cpu time spent up to now is    50353.8 secs

     Computing kpt #:   116  of   251
     total cpu time spent up to now is    50634.7 secs

     Computing kpt #:   117  of   251
     total cpu time spent up to now is    50915.6 secs

     Computing kpt #:   118  of   251
     total cpu time spent up to now is    51196.8 secs

     Computing kpt #:   119  of   251
     total cpu time spent up to now is    51477.9 secs

     Computing kpt #:   120  of   251
     total cpu time spent up to now is    51759.3 secs

     Computing kpt #:   121  of   251
     total cpu time spent up to now is    52040.1 secs

     Computing kpt #:   122  of   251
     total cpu time spent up to now is    52321.6 secs

     Computing kpt #:   123  of   251
     total cpu time spent up to now is    52602.1 secs

     Computing kpt #:   124  of   251
     total cpu time spent up to now is    52882.4 secs

     Computing kpt #:   125  of   251
     total cpu time spent up to now is    53163.1 secs

     Computing kpt #:   126  of   251
     total cpu time spent up to now is    53443.9 secs

     Computing kpt #:   127  of   251
     total cpu time spent up to now is    53725.4 secs

     Computing kpt #:   128  of   251
     total cpu time spent up to now is    54005.8 secs

     Computing kpt #:   129  of   251
     total cpu time spent up to now is    54285.8 secs

     Computing kpt #:   130  of   251
     total cpu time spent up to now is    54566.0 secs

     Computing kpt #:   131  of   251
     total cpu time spent up to now is    54846.9 secs

     Computing kpt #:   132  of   251
     total cpu time spent up to now is    55127.0 secs

     Computing kpt #:   133  of   251
     total cpu time spent up to now is    55407.7 secs

     Computing kpt #:   134  of   251
     total cpu time spent up to now is    55688.2 secs

     Computing kpt #:   135  of   251
     total cpu time spent up to now is    55968.3 secs

     Computing kpt #:   136  of   251
     total cpu time spent up to now is    56248.7 secs

     Computing kpt #:   137  of   251
     total cpu time spent up to now is    56528.9 secs

     Computing kpt #:   138  of   251
     total cpu time spent up to now is    56808.3 secs

     Computing kpt #:   139  of   251
     total cpu time spent up to now is    57322.2 secs

     Computing kpt #:   140  of   251
     total cpu time spent up to now is    57929.5 secs

     Computing kpt #:   141  of   251
     total cpu time spent up to now is    58539.0 secs

     Computing kpt #:   142  of   251
     total cpu time spent up to now is    59146.4 secs

     Computing kpt #:   143  of   251
     total cpu time spent up to now is    59755.6 secs

     Computing kpt #:   144  of   251
     total cpu time spent up to now is    60363.4 secs

     Computing kpt #:   145  of   251
     total cpu time spent up to now is    60972.8 secs

     Computing kpt #:   146  of   251
     total cpu time spent up to now is    61578.7 secs

     Computing kpt #:   147  of   251
     total cpu time spent up to now is    61859.6 secs

     Computing kpt #:   148  of   251
     total cpu time spent up to now is    62139.6 secs

     Computing kpt #:   149  of   251
     total cpu time spent up to now is    62419.2 secs

     Computing kpt #:   150  of   251
     total cpu time spent up to now is    62698.5 secs

     Computing kpt #:   151  of   251
     total cpu time spent up to now is    62976.9 secs

     Computing kpt #:   152  of   251
     total cpu time spent up to now is    63257.3 secs

     Computing kpt #:   153  of   251
     total cpu time spent up to now is    63538.3 secs

     Computing kpt #:   154  of   251
     total cpu time spent up to now is    63846.3 secs

     Computing kpt #:   155  of   251
     total cpu time spent up to now is    64127.4 secs

     Computing kpt #:   156  of   251
     total cpu time spent up to now is    64442.2 secs

     Computing kpt #:   157  of   251
     total cpu time spent up to now is    64750.3 secs

     Computing kpt #:   158  of   251
     total cpu time spent up to now is    65059.7 secs

     Computing kpt #:   159  of   251
     total cpu time spent up to now is    65347.2 secs

     Computing kpt #:   160  of   251
     total cpu time spent up to now is    65661.4 secs

     Computing kpt #:   161  of   251
     total cpu time spent up to now is    65975.3 secs

     Computing kpt #:   162  of   251
     total cpu time spent up to now is    66289.5 secs

     Computing kpt #:   163  of   251
     total cpu time spent up to now is    66604.0 secs

     Computing kpt #:   164  of   251
     total cpu time spent up to now is    66919.1 secs

     Computing kpt #:   165  of   251
     total cpu time spent up to now is    67240.0 secs

     Computing kpt #:   166  of   251
     total cpu time spent up to now is    67557.0 secs

     Computing kpt #:   167  of   251
     total cpu time spent up to now is    67874.2 secs

     Computing kpt #:   168  of   251
     total cpu time spent up to now is    68191.6 secs

     Computing kpt #:   169  of   251
     total cpu time spent up to now is    68510.0 secs

     Computing kpt #:   170  of   251
     total cpu time spent up to now is    68855.6 secs

     Computing kpt #:   171  of   251
     total cpu time spent up to now is    69200.5 secs

     Computing kpt #:   172  of   251
     total cpu time spent up to now is    69545.1 secs

     Computing kpt #:   173  of   251
     total cpu time spent up to now is    69895.2 secs

     Computing kpt #:   174  of   251
     total cpu time spent up to now is    70218.0 secs

[...]
   -13.9457 -13.9456 -13.9403 -13.9403 -13.9313 -13.9313 -13.9265 -13.9264
    -4.1063  -4.1024  -4.0999  -4.0966  -3.9616  -3.9571  -3.9567  -3.9485
    -3.1456  -3.1315  -3.0564  -3.0519  -3.0169  -2.9945  -2.8983  -2.8667
    -2.2684  -2.2618  -2.2338  -2.2279  -2.0516  -2.0476  -2.0388  -2.0239
     1.7828   1.8610   1.9066   1.9641   1.9869   2.0395   2.1551   2.2104
     2.2343   2.2867   2.6809   2.6862   2.8580   2.8746   3.0860   3.0897
     3.2339   3.2628   3.4651   3.4756   3.8517   3.8597   4.0071   4.0100
     4.2884   4.2900   4.5301   4.5346   4.6052   4.6103   4.7853   4.7887
     4.8273   4.8365   4.9134   4.9233   5.2415   5.2431   5.4057   5.4089
     5.6016   5.6081   5.8760   5.8897   5.9520   5.9763   6.0723   6.0972
     6.3300   6.3323   6.4200   6.4549   6.7968   6.8016   7.0634   7.0765
     7.2118   7.2480   8.2562   8.2656   8.4785   8.4831   8.8205   8.8331
     8.9932   8.9986   9.3577   9.3765   9.5170   9.5328   9.5964   9.6346
     9.7794   9.7990   9.8219   9.8448  10.1153  10.1190  10.3058  10.3270
    10.4350  10.4855  10.5644  10.6099  10.6411  10.6765  10.7838  10.7897
    11.1046  11.1536  11.2134  11.2302  11.5112  11.5246  11.7158  11.7214
    11.8945  11.9090  12.1047  12.1401  12.4910  12.5333  13.1644  13.2070
    13.5348  13.5462  13.8220  13.8444  14.1859  14.2136  14.4433  14.4652
    14.7863  14.8205  14.9439  14.9691  15.2346  15.2565  15.3823  15.3849

          k = 2.7186-1.5696 0.1439 ( 23492 PWs)   bands (ev):

   -75.0374 -74.9580 -70.2459 -70.1606 -44.1355 -44.0517 -43.7270 -43.6501
   -43.2272 -43.1435 -39.1785 -39.0988 -38.7703 -38.6850 -38.4262 -38.3465
   -17.0185 -17.0184 -16.9806 -16.9805 -16.9560 -16.9560 -16.9365 -16.9364
   -16.9316 -16.9316 -16.9218 -16.9218 -16.9152 -16.9151 -16.9138 -16.9137
   -14.0012 -14.0012 -13.9944 -13.9943 -13.9866 -13.9866 -13.9789 -13.9788
   -13.9778 -13.9777 -13.9639 -13.9639 -13.9578 -13.9578 -13.9533 -13.9533
   -13.9456 -13.9456 -13.9403 -13.9402 -13.9312 -13.9312 -13.9263 -13.9263
    -4.0561  -4.0520  -4.0509  -4.0475  -3.9203  -3.9178  -3.9156  -3.9083
    -3.1498  -3.1374  -3.0527  -3.0509  -3.0353  -3.0175  -2.9155  -2.8842
    -2.2880  -2.2804  -2.2681  -2.2627  -2.0759  -2.0733  -2.0719  -2.0538
     1.7762   1.8542   1.9057   1.9624   1.9860   2.0378   2.1609   2.2216
     2.2406   2.2975   2.6582   2.6635   2.8294   2.8460   3.0625   3.0640
     3.2076   3.2372   3.4715   3.4818   3.8471   3.8565   3.9979   4.0012
     4.2573   4.2589   4.5307   4.5351   4.5931   4.5985   4.7639   4.7667
     4.8164   4.8265   4.8866   4.8976   5.2114   5.2141   5.3857   5.3890
     5.5786   5.5838   5.8794   5.8929   5.9381   5.9655   6.0674   6.0939
     6.3291   6.3337   6.4151   6.4479   6.7791   6.7831   7.0592   7.0735
     7.2038   7.2411   8.2485   8.2590   8.4666   8.4724   8.8193   8.8319
     8.9794   8.9842   9.3448   9.3647   9.5206   9.5330   9.6054   9.6367
     9.7702   9.7903   9.8223   9.8432  10.1092  10.1128  10.3011  10.3254
    10.4360  10.4844  10.5627  10.6038  10.6353  10.6756  10.7650  10.7751
    11.1101  11.1612  11.2249  11.2416  11.5149  11.5309  11.7080  11.7130
    11.8650  11.8800  12.1034  12.1392  12.4950  12.5378  13.1606  13.2034
    13.5410  13.5521  13.8169  13.8374  14.2007  14.2301  14.4559  14.4753
    14.7774  14.8058  14.9277  14.9598  15.3090  15.3339  15.4439  15.4458

          k = 2.7818-1.6061 0.1473 ( 23492 PWs)   bands (ev):

   -75.0374 -74.9580 -70.2459 -70.1606 -44.1355 -44.0517 -43.7270 -43.6501
   -43.2272 -43.1435 -39.1785 -39.0988 -38.7703 -38.6850 -38.4262 -38.3465
   -17.0185 -17.0184 -16.9805 -16.9805 -16.9560 -16.9560 -16.9365 -16.9364
   -16.9316 -16.9315 -16.9217 -16.9217 -16.9152 -16.9151 -16.9138 -16.9137
   -14.0013 -14.0013 -13.9944 -13.9944 -13.9866 -13.9865 -13.9788 -13.9788
   -13.9778 -13.9777 -13.9638 -13.9638 -13.9579 -13.9579 -13.9534 -13.9534
   -13.9456 -13.9456 -13.9402 -13.9402 -13.9312 -13.9311 -13.9262 -13.9262
    -4.0083  -4.0044  -4.0033  -4.0000  -3.8839  -3.8810  -3.8780  -3.8709
    -3.1558  -3.1447  -3.0715  -3.0570  -3.0400  -3.0325  -2.9352  -2.9035
    -2.3063  -2.2964  -2.2955  -2.2920  -2.1036  -2.1005  -2.0925  -2.0779
     1.7700   1.8477   1.9050   1.9611   1.9853   2.0365   2.1659   2.2329
     2.2459   2.3087   2.6388   2.6442   2.8009   2.8174   3.0413   3.0430
     3.1844   3.2151   3.4838   3.4943   3.8379   3.8481   3.9909   3.9947
     4.2261   4.2275   4.5331   4.5373   4.5861   4.5922   4.7466   4.7494
     4.8084   4.8202   4.8629   4.8756   5.1748   5.1789   5.3736   5.3768
     5.5553   5.5597   5.8821   5.8956   5.9266   5.9555   6.0678   6.0945
     6.3278   6.3354   6.4121   6.4423   6.7622   6.7654   7.0554   7.0712
     7.1958   7.2345   8.2422   8.2539   8.4541   8.4613   8.8200   8.8328
     8.9660   8.9703   9.3332   9.3539   9.5210   9.5335   9.6173   9.6430
     9.7621   9.7822   9.8225   9.8419  10.1040  10.1076  10.2946  10.3220
    10.4377  10.4836  10.5603  10.5947  10.6307  10.6744  10.7451  10.7596
    11.1160  11.1688  11.2391  11.2553  11.5192  11.5388  11.6991  11.7052
    11.8381  11.8537  12.1021  12.1384  12.4983  12.5420  13.1554  13.1987
    13.5485  13.5594  13.8098  13.8284  14.2143  14.2461  14.4647  14.4819
    14.7636  14.7892  14.9157  14.9543  15.3743  15.4025  15.5037  15.5056

          k = 2.8451-1.6426 0.1506 ( 23495 PWs)   bands (ev):

   -75.0374 -74.9580 -70.2459 -70.1606 -44.1355 -44.0517 -43.7270 -43.6501
   -43.2272 -43.1435 -39.1785 -39.0988 -38.7703 -38.6850 -38.4263 -38.3465
   -17.0185 -17.0184 -16.9805 -16.9805 -16.9560 -16.9559 -16.9365 -16.9364
   -16.9316 -16.9315 -16.9217 -16.9217 -16.9152 -16.9151 -16.9138 -16.9137
   -14.0014 -14.0014 -13.9944 -13.9944 -13.9865 -13.9865 -13.9788 -13.9787
   -13.9778 -13.9777 -13.9637 -13.9637 -13.9580 -13.9579 -13.9535 -13.9534
   -13.9456 -13.9456 -13.9402 -13.9401 -13.9311 -13.9310 -13.9261 -13.9261
    -3.9639  -3.9598  -3.9585  -3.9547  -3.8528  -3.8481  -3.8449  -3.8372
    -3.1626  -3.1528  -3.0958  -3.0773  -3.0425  -3.0360  -2.9561  -2.9230
    -2.3285  -2.3197  -2.3113  -2.3056  -2.1295  -2.1234  -2.1099  -2.0971
     1.7642   1.8418   1.9043   1.9602   1.9846   2.0356   2.1700   2.2440
     2.2503   2.3198   2.6226   2.6286   2.7736   2.7902   3.0220   3.0266
     3.1646   3.1966   3.5013   3.5124   3.8225   3.8327   3.9889   3.9926
     4.1953   4.1965   4.5364   4.5408   4.5829   4.5900   4.7341   4.7375
     4.8020   4.8155   4.8448   4.8589   5.1334   5.1391   5.3686   5.3718
     5.5319   5.5362   5.8834   5.8967   5.9185   5.9463   6.0722   6.0980
     6.3262   6.3369   6.4108   6.4382   6.7466   6.7490   7.0520   7.0695
     7.1881   7.2284   8.2374   8.2502   8.4417   8.4504   8.8223   8.8353
     8.9532   8.9572   9.3230   9.3445   9.5195   9.5342   9.6303   9.6528
     9.7555   9.7751   9.8222   9.8406  10.0999  10.1037  10.2866  10.3170
    10.4398  10.4833  10.5572  10.5841  10.6267  10.6732  10.7263  10.7452
    11.1212  11.1753  11.2548  11.2707  11.5228  11.5469  11.6905  11.6993
    11.8140  11.8300  12.1009  12.1377  12.5010  12.5456  13.1497  13.1936
    13.5570  13.5674  13.8013  13.8179  14.2265  14.2613  14.4688  14.4856
    14.7476  14.7745  14.9073  14.9513  15.4301  15.4619  15.5611  15.5645

          k = 2.9083-1.6791 0.1540 ( 23499 PWs)   bands (ev):

   -75.0374 -74.9580 -70.2459 -70.1606 -44.1355 -44.0517 -43.7270 -43.6501
   -43.2272 -43.1435 -39.1785 -39.0988 -38.7703 -38.6850 -38.4263 -38.3465
   -17.0186 -17.0184 -16.9805 -16.9804 -16.9559 -16.9559 -16.9365 -16.9364
   -16.9315 -16.9315 -16.9217 -16.9217 -16.9152 -16.9151 -16.9138 -16.9137
   -14.0015 -14.0015 -13.9944 -13.9944 -13.9865 -13.9864 -13.9787 -13.9787
   -13.9778 -13.9777 -13.9636 -13.9636 -13.9580 -13.9580 -13.9535 -13.9535
   -13.9457 -13.9456 -13.9402 -13.9401 -13.9310 -13.9310 -13.9260 -13.9260
    -3.9236  -3.9190  -3.9176  -3.9128  -3.8270  -3.8206  -3.8172  -3.8089
    -3.1693  -3.1611  -3.1196  -3.0992  -3.0474  -3.0392  -2.9761  -2.9412
    -2.3486  -2.3400  -2.3214  -2.3147  -2.1504  -2.1424  -2.1247  -2.1127
     1.7592   1.8367   1.9037   1.9596   1.9840   2.0350   2.1733   2.2537
     2.2544   2.3304   2.6096   2.6165   2.7485   2.7654   3.0058   3.0134
     3.1484   3.1816   3.5230   3.5351   3.8007   3.8102   3.9931   3.9960
     4.1653   4.1664   4.5401   4.5451   4.5815   4.5896   4.7272   4.7311
     4.7949   4.8062   4.8388   4.8506   5.0895   5.0969   5.3689   5.3723
     5.5093   5.5138   5.8829   5.8962   5.9142   5.9380   6.0787   6.1031
     6.3244   6.3382   6.4109   6.4354   6.7327   6.7343   7.0490   7.0683
     7.1811   7.2230   8.2339   8.2478   8.4301   8.4404   8.8256   8.8389
     8.9413   8.9452   9.3145   9.3366   9.5175   9.5344   9.6428   9.6649
     9.7505   9.7690   9.8213   9.8389  10.0970  10.1009  10.2776  10.3109
    10.4421  10.4838  10.5526  10.5741  10.6228  10.6720  10.7104  10.7330
    11.1255  11.1803  11.2705  11.2866  11.5244  11.5535  11.6847  11.6968
    11.7920  11.8087  12.0999  12.1371  12.5032  12.5486  13.1440  13.1886
    13.5661  13.5758  13.7924  13.8066  14.2372  14.2754  14.4681  14.4873
    14.7325  14.7631  14.9016  14.9497  15.4761  15.5115  15.6153  15.6209

          k = 2.9715-1.7156 0.1573 ( 23496 PWs)   bands (ev):

   -75.0374 -74.9580 -70.2459 -70.1606 -44.1355 -44.0517 -43.7270 -43.6501
   -43.2272 -43.1435 -39.1785 -39.0988 -38.7703 -38.6850 -38.4263 -38.3465
   -17.0186 -17.0185 -16.9804 -16.9804 -16.9559 -16.9559 -16.9365 -16.9364
   -16.9315 -16.9315 -16.9217 -16.9217 -16.9152 -16.9151 -16.9138 -16.9137
   -14.0016 -14.0015 -13.9944 -13.9944 -13.9865 -13.9864 -13.9787 -13.9787
   -13.9777 -13.9777 -13.9636 -13.9635 -13.9580 -13.9580 -13.9536 -13.9535
   -13.9456 -13.9456 -13.9401 -13.9401 -13.9310 -13.9309 -13.9260 -13.9259
    -3.8887  -3.8833  -3.8819  -3.8759  -3.8074  -3.7993  -3.7963  -3.7870
    -3.1751  -3.1690  -3.1409  -3.1182  -3.0545  -3.0449  -2.9929  -2.9565
    -2.3640  -2.3552  -2.3291  -2.3221  -2.1659  -2.1568  -2.1369  -2.1252
     1.7552   1.8325   1.9033   1.9593   1.9836   2.0346   2.1758   2.2564
     2.2633   2.3396   2.5998   2.6079   2.7268   2.7444   2.9930   3.0030
     3.1357   3.1701   3.5476   3.5616   3.7736   3.7826   4.0028   4.0048
     4.1362   4.1379   4.5441   4.5501   4.5801   4.5888   4.7256   4.7301
     4.7852   4.7923   4.8458   4.8534   5.0453   5.0547   5.3729   5.3769
     5.4880   5.4932   5.8806   5.8960   5.9121   5.9313   6.0858   6.1085
     6.3227   6.3390   6.4120   6.4337   6.7210   6.7220   7.0467   7.0676
     7.1750   7.2186   8.2314   8.2464   8.4201   8.4318   8.8294   8.8432
     8.9308   8.9349   9.3078   9.3303   9.5156   9.5342   9.6536   9.6779
     9.7468   9.7641   9.8197   9.8369  10.0955  10.0993  10.2685  10.3043
    10.4440  10.4854  10.5454  10.5672  10.6192  10.6710  10.6980  10.7237
    11.1287  11.1839  11.2848  11.3015  11.5233  11.5570  11.6839  11.6985
    11.7719  11.7894  12.0991  12.1366  12.5048  12.5511  13.1389  13.1841
    13.5750  13.5838  13.7839  13.7954  14.2460  14.2880  14.4638  14.4876
    14.7202  14.7553  14.8977  14.9487  15.5125  15.5512  15.6643  15.6724

          k = 3.0347-1.7521 0.1607 ( 23500 PWs)   bands (ev):

   -75.0374 -74.9580 -70.2459 -70.1606 -44.1355 -44.0517 -43.7270 -43.6501
   -43.2272 -43.1435 -39.1785 -39.0988 -38.7703 -38.6850 -38.4263 -38.3465
   -17.0186 -17.0185 -16.9804 -16.9804 -16.9559 -16.9559 -16.9365 -16.9364
   -16.9315 -16.9314 -16.9217 -16.9216 -16.9152 -16.9152 -16.9138 -16.9137
   -14.0016 -14.0016 -13.9945 -13.9944 -13.9865 -13.9864 -13.9787 -13.9786
   -13.9777 -13.9777 -13.9635 -13.9635 -13.9581 -13.9580 -13.9536 -13.9536
   -13.9456 -13.9456 -13.9401 -13.9401 -13.9310 -13.9309 -13.9259 -13.9259
    -3.8606  -3.8543  -3.8535  -3.8461  -3.7941  -3.7843  -3.7831  -3.7726
    -3.1792  -3.1758  -3.1580  -3.1323  -3.0622  -3.0524  -3.0046  -2.9677
    -2.3746  -2.3653  -2.3349  -2.3278  -2.1762  -2.1665  -2.1461  -2.1346
     1.7522   1.8293   1.9030   1.9590   1.9832   2.0344   2.1776   2.2583
     2.2703   2.3470   2.5931   2.6025   2.7096   2.7283   2.9836   2.9956
     3.1267   3.1620   3.5731   3.5904   3.7437   3.7536   4.0163   4.0186
     4.1085   4.1116   4.5482   4.5556   4.5775   4.5867   4.7282   4.7335
     4.7732   4.7795   4.8605   4.8668   5.0026   5.0150   5.3790   5.3841
     5.4691   5.4755   5.8777   5.8969   5.9102   5.9267   6.0918   6.1133
     6.3212   6.3395   6.4134   6.4329   6.7120   6.7128   7.0449   7.0672
     7.1703   7.2152   8.2298   8.2457   8.4124   8.4252   8.8330   8.8475
     8.9221   8.9268   9.3029   9.3258   9.5141   9.5338   9.6618   9.6902
     9.7436   9.7609   9.8180   9.8348  10.0952  10.0983  10.2607  10.2984
    10.4453  10.4881  10.5368  10.5636  10.6161  10.6705  10.6892  10.7172
    11.1309  11.1863  11.2965  11.3139  11.5205  11.5574  11.6890  11.7041
    11.7534  11.7721  12.0986  12.1363  12.5059  12.5529  13.1349  13.1806
    13.5829  13.5903  13.7772  13.7855  14.2527  14.2982  14.4582  14.4869
    14.7116  14.7505  14.8950  14.9481  15.5390  15.5804  15.7046  15.7156

          k = 3.0979-1.7886 0.1640 ( 23510 PWs)   bands (ev):

   -75.0374 -74.9580 -70.2459 -70.1606 -44.1355 -44.0517 -43.7270 -43.6501
   -43.2272 -43.1435 -39.1785 -39.0988 -38.7703 -38.6850 -38.4263 -38.3465
   -17.0186 -17.0185 -16.9804 -16.9804 -16.9559 -16.9559 -16.9365 -16.9365
   -16.9315 -16.9315 -16.9217 -16.9217 -16.9152 -16.9152 -16.9138 -16.9138
   -14.0016 -14.0016 -13.9945 -13.9945 -13.9865 -13.9864 -13.9787 -13.9786
   -13.9777 -13.9777 -13.9635 -13.9635 -13.9581 -13.9581 -13.9536 -13.9536
   -13.9457 -13.9456 -13.9401 -13.9401 -13.9310 -13.9309 -13.9259 -13.9259
    -3.8414  -3.8358  -3.8330  -3.8267  -3.7861  -3.7787  -3.7746  -3.7655
    -3.1812  -3.1807  -3.1694  -3.1405  -3.0683  -3.0591  -3.0112  -2.9745
    -2.3807  -2.3711  -2.3386  -2.3315  -2.1819  -2.1720  -2.1520  -2.1405
     1.7503   1.8274   1.9028   1.9589   1.9830   2.0343   2.1786   2.2594
     2.2748   2.3517   2.5892   2.5997   2.6985   2.7181   2.9780   2.9912
     3.1213   3.1571   3.5954   3.6185   3.7145   3.7287   4.0312   4.0366
     4.0826   4.0890   4.5515   4.5612   4.5737   4.5842   4.7327   4.7402
     4.7608   4.7700   4.8786   4.8882   4.9638   4.9817   5.3851   5.3918
     5.4546   5.4627   5.8756   5.8982   5.9081   5.9242   6.0958   6.1165
     6.3202   6.3398   6.4145   6.4326   6.7062   6.7072   7.0439   7.0671
     7.1673   7.2131   8.2290   8.2454   8.4075   8.4210   8.8356   8.8507
     8.9162   8.9215   9.2999   9.3230   9.5132   9.5335   9.6667   9.6997
     9.7407   9.7593   9.8166   9.8332  10.0957  10.0976  10.2553  10.2942
    10.4461  10.4912  10.5295  10.5619  10.6140  10.6704  10.6839  10.7135
    11.1322  11.1876  11.3041  11.3223  11.5176  11.5563  11.6987  11.7110
    11.7375  11.7578  12.0983  12.1361  12.5066  12.5539  13.1323  13.1784
    13.5885  13.5945  13.7735  13.7779  14.2569  14.3051  14.4535  14.4860
    14.7065  14.7479  14.8935  14.9477  15.5552  15.5984  15.7319  15.7453

          k = 3.1612-1.8251 0.1674 ( 23516 PWs)   bands (ev):

   -75.0374 -74.9580 -70.2459 -70.1606 -44.1355 -44.0517 -43.7270 -43.6501
   -43.2272 -43.1435 -39.1785 -39.0988 -38.7703 -38.6850 -38.4263 -38.3465
   -17.0185 -17.0185 -16.9804 -16.9804 -16.9559 -16.9559 -16.9365 -16.9365
   -16.9315 -16.9315 -16.9217 -16.9217 -16.9152 -16.9152 -16.9138 -16.9138
   -14.0016 -14.0016 -13.9945 -13.9945 -13.9865 -13.9864 -13.9787 -13.9787
   -13.9777 -13.9777 -13.9635 -13.9635 -13.9581 -13.9581 -13.9536 -13.9536
   -13.9456 -13.9456 -13.9401 -13.9401 -13.9310 -13.9309 -13.9259 -13.9259
    -3.8342  -3.8299  -3.8242  -3.8209  -3.7815  -3.7798  -3.7711  -3.7639
    -3.1825  -3.1815  -3.1736  -3.1431  -3.0706  -3.0618  -3.0132  -2.9768
    -2.3827  -2.3729  -2.3399  -2.3329  -2.1837  -2.1737  -2.1540  -2.1425
     1.7497   1.8268   1.9027   1.9589   1.9830   2.0343   2.1790   2.2598
     2.2764   2.3533   2.5879   2.5989   2.6946   2.7146   2.9761   2.9897
     3.1195   3.1555   3.6054   3.6338   3.6988   3.7179   4.0402   4.0542
     4.0624   4.0774   4.5529   4.5648   4.5706   4.5829   4.7352   4.7479
     4.7511   4.7661   4.8889   4.9060   4.9402   4.9664   5.3877   5.3954
     5.4486   5.4577   5.8748   5.8990   5.9070   5.9234   6.0972   6.1177
     6.3199   6.3398   6.4150   6.4326   6.7042   6.7053   7.0435   7.0670
     7.1663   7.2124   8.2287   8.2454   8.4058   8.4196   8.8366   8.8520
     8.9140   8.9197   9.2989   9.3221   9.5129   9.5334   9.6684   9.7035
     9.7392   9.7589   9.8161   9.8326  10.0961  10.0971  10.2534  10.2927
    10.4463  10.4926  10.5265  10.5614  10.6133  10.6704  10.6821  10.7122
    11.1326  11.1881  11.3068  11.3252  11.5163  11.5557  11.7075  11.7118
    11.7304  11.7511  12.0981  12.1360  12.5068  12.5543  13.1314  13.1777
    13.5907  13.5959  13.7734  13.7739  14.2583  14.3075  14.4517  14.4856
    14.7049  14.7471  14.8929  14.9476  15.5607  15.6046  15.7416  15.7560

     Writing all to output data dir ./tmp/MnBi2Te4.save/
 
     init_run     :     44.85s CPU     46.63s WALL (       1 calls)
     electrons    :  92391.79s CPU  97029.34s WALL (       1 calls)

     Called by init_run:
     wfcinit      :     42.33s CPU     43.81s WALL (       1 calls)
     wfcinit:atom :      0.39s CPU      0.44s WALL (     251 calls)
     wfcinit:wfcr :   2955.00s CPU   3103.86s WALL (     251 calls)
     potinit      :      1.26s CPU      1.42s WALL (       1 calls)
     hinit0       :      0.51s CPU      0.59s WALL (       1 calls)

     Called by electrons:
     c_bands      :  92391.78s CPU  97029.29s WALL (       1 calls)
     v_of_rho     :      0.59s CPU      0.71s WALL (       1 calls)
     v_h          :      0.01s CPU      0.02s WALL (       1 calls)
     v_xc         :      0.57s CPU      0.69s WALL (       1 calls)
     newd         :      0.65s CPU      0.70s WALL (       1 calls)
     PAW_pot      :      0.61s CPU      0.62s WALL (       1 calls)

     Called by c_bands:
     init_us_2    :      1.18s CPU      1.22s WALL (     502 calls)
     init_us_2:cp :      1.17s CPU      1.21s WALL (     502 calls)
     cegterg      :  89420.93s CPU  93907.09s WALL (    1063 calls)

     Called by sum_band:

     Called by *egterg:
     cdiaghg      :    654.38s CPU    685.36s WALL (   18907 calls)
     cegterg:over :    553.12s CPU    590.30s WALL (   18656 calls)
     cegterg:upda :    367.77s CPU    384.86s WALL (   18656 calls)
     cegterg:last :    774.14s CPU    806.91s WALL (    7971 calls)
     cdiaghg:chol :     64.13s CPU     67.00s WALL (   18907 calls)
     cdiaghg:inve :     12.42s CPU     12.79s WALL (   18907 calls)
     cdiaghg:para :    127.93s CPU    141.43s WALL (   37814 calls)
     h_psi        :  89551.94s CPU  94050.41s WALL (   19970 calls)
     s_psi        :    304.99s CPU    311.02s WALL (   20221 calls)
     g_psi        :      6.25s CPU      6.42s WALL (   18656 calls)

     Called by h_psi:
     h_psi:calbec :    527.51s CPU    577.92s WALL (   19970 calls)
     vloc_psi     :  88407.93s CPU  92835.11s WALL (   19970 calls)
     add_vuspsi   :    281.02s CPU    286.07s WALL (   19970 calls)
     vhpsi        :    319.55s CPU    335.26s WALL (   19970 calls)

     General routines
     calbec       :    539.17s CPU    590.24s WALL (   20221 calls)
     fft          :      0.21s CPU      0.25s WALL (      27 calls)
     fftw         :  58881.25s CPU  62934.54s WALL ( 6198208 calls)
     davcio       :      0.19s CPU      3.35s WALL (    1004 calls)
 
     Parallel routines

     Hubbard U routines
     vhpsi        :    319.55s CPU    335.26s WALL (   19970 calls)

     PAW routines
     PAW_pot      :      0.61s CPU      0.62s WALL (       1 calls)
 
     PWSCF        :   1d 1h44m CPU   1d 3h 2m WALL

 
   This run was terminated on:  20:33:11  15Jul2025            

=------------------------------------------------------------------------------=
   JOB DONE.
=------------------------------------------------------------------------------=
