
     Program PWSCF v.7.2 starts on 14Jul2025 at 10:16:39 

     This program is part of the open-source Quantum ESPRESSO suite
     for quantum simulation of materials; please cite
         "P. Giannozzi et al., J. Phys.:Condens. Matter 21 395502 (2009);
         "P. Giannozzi et al., J. Phys.:Condens. Matter 29 465901 (2017);
         "P. Giannozzi et al., J. Chem. Phys. 152 154105 (2020);
          URL http://www.quantum-espresso.org", 
     in publications or presentations arising from this work. More details at
     http://www.quantum-espresso.org/quote

     Parallel version (MPI), running on    32 processors

     MPI processes distributed on     1 nodes
     253869 MiB available memory on the printing compute node when the environment starts
 
     Reading input from MnBi2Te4.scf.in

     Current dimensions of program PWSCF are:
     Max number of different atomic species (ntypx) = 10
     Max number of k-points (npk) = 120000
     Max angular momentum in pseudopotentials (lmaxx) =  4
     file Mn.rel-pbe-spn-kjpaw_psl.1.0.0.UPF: wavefunction(s)  3S 4S 3P 3P 3D 3D renormalized
     file Mn.rel-pbe-spn-kjpaw_psl.1.0.0.UPF: wavefunction(s)  3S 4S 3P 3P 3D 3D renormalized
     file Bi.rel-pbe-dn-kjpaw_psl.1.0.0.UPF: wavefunction(s)  6P 6P 5D 5D renormalized
     file Te.rel-pbe-n-kjpaw_psl.1.0.0.UPF: wavefunction(s)  5S 5P 5P renormalized

     Fixed quantization axis for GGA:     0.000000    0.000000    1.000000
 
     R & G space division:  proc/nbgrp/npool/nimage =      32
     Subspace diagonalization in iterative solution of the eigenvalue problem:
     one sub-group per band group will be used
     scalapack distributed-memory algorithm (size of sub-group:  2*  2 procs)

 
     Parallelization info
     --------------------
     sticks:   dense  smooth     PW     G-vecs:    dense   smooth      PW
     Min         252     252     73                 5873     5873     932
     Max         253     253     74                 5875     5875     933
     Sum        8079    8079   2353               187971   187971   29827
 
     Using Slab Decomposition
 


     bravais-lattice index     =            5
     lattice parameter (alat)  =      51.7756  a.u.
     unit-cell volume          =    2994.5593 (a.u.)^3
     number of atoms/cell      =           14
     number of atomic types    =            4
     number of electrons       =       138.00
     number of Kohn-Sham states=          166
     kinetic-energy cutoff     =      60.0000  Ry
     charge density cutoff     =     240.0000  Ry
     scf convergence threshold =      3.0E-05
     mixing beta               =       0.3000
     number of iterations used =            8  plain     mixing
     Exchange-correlation= SLA  PW   PBX  PBC
                           (   1   4   3   4   0   0   0)
     Noncollinear calculation with spin-orbit

     Hubbard projectors: ortho-atomic
     Hubbard parameters of DFT+U (Liechtenstein formulation) in eV:
     U(Mn1-3d) =  4.0000
     U(Mn2-3d) =  4.0000
     DFT+U on averaged j=l+1/2,l-1/2 radial WFs

     Internal variables: lda_plus_u = T, lda_plus_u_kind = 1

     celldm(1)=  51.775623  celldm(2)=   0.000000  celldm(3)=   0.000000
     celldm(4)=   0.987491  celldm(5)=   0.000000  celldm(6)=   0.000000

     crystal axes: (cart. coord. in units of alat)
               a(1) = (   0.079085  -0.045660   0.995822 )  
               a(2) = (   0.000000   0.091319   0.995822 )  
               a(3) = (  -0.079085  -0.045660   0.995822 )  

     reciprocal axes: (cart. coord. in units 2 pi/alat)
               b(1) = (  6.322337 -3.650203  0.334732 )  
               b(2) = (  0.000000  7.300406  0.334732 )  
               b(3) = ( -6.322337 -3.650203  0.334732 )  


     PseudoPot. # 1 for Mn read from file:
     ./Mn.rel-pbe-spn-kjpaw_psl.1.0.0.UPF
     MD5 check sum: 62c7b35748dc83398aa7a788c15386af
     Pseudo is Projector augmented-wave + core cor, Zval = 15.0
     Generated using 'atomic' code by A. Dal Corso  v.7.1
     Shape of augmentation charge: PSQ
     Using radial grid of 1187 points, 10 beta functions with: 
                l(1) =   0
                l(2) =   0
                l(3) =   1
                l(4) =   1
                l(5) =   1
                l(6) =   1
                l(7) =   2
                l(8) =   2
                l(9) =   2
               l(10) =   2
     Q(r) pseudized with 0 coefficients 


     PseudoPot. # 2 for Mn read from file:
     ./Mn.rel-pbe-spn-kjpaw_psl.1.0.0.UPF
     MD5 check sum: 62c7b35748dc83398aa7a788c15386af
     Pseudo is Projector augmented-wave + core cor, Zval = 15.0
     Generated using 'atomic' code by A. Dal Corso  v.7.1
     Shape of augmentation charge: PSQ
     Using radial grid of 1187 points, 10 beta functions with: 
                l(1) =   0
                l(2) =   0
                l(3) =   1
                l(4) =   1
                l(5) =   1
                l(6) =   1
                l(7) =   2
                l(8) =   2
                l(9) =   2
               l(10) =   2
     Q(r) pseudized with 0 coefficients 


     PseudoPot. # 3 for Bi read from file:
     ./Bi.rel-pbe-dn-kjpaw_psl.1.0.0.UPF
     MD5 check sum: fc32cfc87b481ddd01d0f21eceeae593
     Pseudo is Projector augmented-wave + core cor, Zval = 15.0
     Generated using 'atomic' code by A. Dal Corso  v.7.1
     Shape of augmentation charge: PSQ
     Using radial grid of 1283 points, 10 beta functions with: 
                l(1) =   0
                l(2) =   0
                l(3) =   1
                l(4) =   1
                l(5) =   1
                l(6) =   1
                l(7) =   2
                l(8) =   2
                l(9) =   2
               l(10) =   2
     Q(r) pseudized with 0 coefficients 


     PseudoPot. # 4 for Te read from file:
     ./Te.rel-pbe-n-kjpaw_psl.1.0.0.UPF
     MD5 check sum: 5d6e171516c684cb1de97b601e9672ea
     Pseudo is Projector augmented-wave + core cor, Zval =  6.0
     Generated using 'atomic' code by A. Dal Corso  v.7.1
     Shape of augmentation charge: PSQ
     Using radial grid of 1245 points, 10 beta functions with: 
                l(1) =   0
                l(2) =   0
                l(3) =   1
                l(4) =   1
                l(5) =   1
                l(6) =   1
                l(7) =   2
                l(8) =   2
                l(9) =   2
               l(10) =   2
     Q(r) pseudized with 0 coefficients 


     atomic species   valence    mass     pseudopotential
        Mn1           15.00    54.93800     Mn( 1.00)
        Mn2           15.00    54.93800     Mn( 1.00)
        Bi            15.00   208.98000     Bi( 1.00)
        Te             6.00   127.60300     Te( 1.00)

     12 Sym. Ops., with inversion, found


                                    s                        frac. trans.

      isym =  1     identity                                     

 Time Reversal            0
 cryst.   s( 1) = (     1          0          0      )
                  (     0          1          0      )
                  (     0          0          1      )

 cart.    s( 1) = (  1.0000000  0.0000000  0.0000000 )
                  (  0.0000000  1.0000000  0.0000000 )
                  (  0.0000000  0.0000000  1.0000000 )


      isym =  2     180 deg rotation - cart. axis [1,0,0]        

 Time Reversal            1
 cryst.   s( 2) = (     0          0         -1      )
                  (     0         -1          0      )
                  (    -1          0          0      )

 cart.    s( 2) = (  1.0000000  0.0000000  0.0000000 )
                  (  0.0000000 -1.0000000 -0.0000000 )
                  (  0.0000000  0.0000000 -1.0000000 )


      isym =  3     120 deg rotation - cryst. axis [0,0,1]       

 Time Reversal            0
 cryst.   s( 3) = (     0          1          0      )
                  (     0          0          1      )
                  (     1          0          0      )

 cart.    s( 3) = ( -0.5000000 -0.8660254 -0.0000000 )
                  (  0.8660254 -0.5000000 -0.0000000 )
                  (  0.0000000  0.0000000  1.0000000 )


      isym =  4     120 deg rotation - cryst. axis [0,0,-1]      

 Time Reversal            0
 cryst.   s( 4) = (     0          0          1      )
                  (     1          0          0      )
                  (     0          1          0      )

 cart.    s( 4) = ( -0.5000000  0.8660254  0.0000000 )
                  ( -0.8660254 -0.5000000 -0.0000000 )
                  (  0.0000000  0.0000000  1.0000000 )


      isym =  5     180 deg rotation - cryst. axis [0,1,0]       

 Time Reversal            1
 cryst.   s( 5) = (     0         -1          0      )
                  (    -1          0          0      )
                  (     0          0         -1      )

 cart.    s( 5) = ( -0.5000000 -0.8660254 -0.0000000 )
                  ( -0.8660254  0.5000000  0.0000000 )
                  (  0.0000000  0.0000000 -1.0000000 )


      isym =  6     180 deg rotation - cryst. axis [1,1,0]       

 Time Reversal            1
 cryst.   s( 6) = (    -1          0          0      )
                  (     0          0         -1      )
                  (     0         -1          0      )

 cart.    s( 6) = ( -0.5000000  0.8660254  0.0000000 )
                  (  0.8660254  0.5000000  0.0000000 )
                  (  0.0000000  0.0000000 -1.0000000 )


      isym =  7     inversion                                    

 Time Reversal            0
 cryst.   s( 7) = (    -1          0          0      )
                  (     0         -1          0      )
                  (     0          0         -1      )

 cart.    s( 7) = ( -1.0000000  0.0000000  0.0000000 )
                  (  0.0000000 -1.0000000 -0.0000000 )
                  (  0.0000000  0.0000000 -1.0000000 )


      isym =  8     inv. 180 deg rotation - cart. axis [1,0,0]   

 Time Reversal            1
 cryst.   s( 8) = (     0          0          1      )
                  (     0          1          0      )
                  (     1          0          0      )

 cart.    s( 8) = ( -1.0000000  0.0000000  0.0000000 )
                  (  0.0000000  1.0000000  0.0000000 )
                  (  0.0000000  0.0000000  1.0000000 )


      isym =  9     inv. 120 deg rotation - cryst. axis [0,0,1]  

 Time Reversal            0
 cryst.   s( 9) = (     0         -1          0      )
                  (     0          0         -1      )
                  (    -1          0          0      )

 cart.    s( 9) = (  0.5000000  0.8660254  0.0000000 )
                  ( -0.8660254  0.5000000  0.0000000 )
                  (  0.0000000  0.0000000 -1.0000000 )


      isym = 10     inv. 120 deg rotation - cryst. axis [0,0,-1] 

 Time Reversal            0
 cryst.   s(10) = (     0          0         -1      )
                  (    -1          0          0      )
                  (     0         -1          0      )

 cart.    s(10) = (  0.5000000 -0.8660254 -0.0000000 )
                  (  0.8660254  0.5000000  0.0000000 )
                  (  0.0000000  0.0000000 -1.0000000 )


      isym = 11     inv. 180 deg rotation - cryst. axis [0,1,0]  

 Time Reversal            1
 cryst.   s(11) = (     0          1          0      )
                  (     1          0          0      )
                  (     0          0          1      )

 cart.    s(11) = (  0.5000000  0.8660254  0.0000000 )
                  (  0.8660254 -0.5000000 -0.0000000 )
                  (  0.0000000  0.0000000  1.0000000 )


      isym = 12     inv. 180 deg rotation - cryst. axis [1,1,0]  

 Time Reversal            1
 cryst.   s(12) = (     1          0          0      )
                  (     0          0          1      )
                  (     0          1          0      )

 cart.    s(12) = (  0.5000000 -0.8660254 -0.0000000 )
                  ( -0.8660254 -0.5000000 -0.0000000 )
                  (  0.0000000  0.0000000  1.0000000 )


     the magnetic double point group is D_3d (-3m)  [S_6 (-3)   ]
     using the double point group S_6 (-3)   
     there are 12 classes and  6 irreducible representations
     the character table:

       E     -E    C3    -C3   C3^2  -C3^2  i    -i    S6^5  -S6^5 S6    -S6  
                                                                              
G_4+   1.00 -1.00  0.50 -0.50  0.50 -0.50  1.00 -1.00  0.50 -0.50  0.50 -0.50
G_5+   1.00 -1.00  0.50 -0.50  0.50 -0.50  1.00 -1.00  0.50 -0.50  0.50 -0.50
G_6+   1.00 -1.00 -1.00  1.00 -1.00  1.00  1.00 -1.00 -1.00  1.00 -1.00  1.00
G_4-   1.00 -1.00  0.50 -0.50  0.50 -0.50 -1.00  1.00 -0.50  0.50 -0.50  0.50
G_5-   1.00 -1.00  0.50 -0.50  0.50 -0.50 -1.00  1.00 -0.50  0.50 -0.50  0.50
G_6-   1.00 -1.00 -1.00  1.00 -1.00  1.00 -1.00  1.00  1.00 -1.00  1.00 -1.00

     imaginary part

       E     -E    C3    -C3   C3^2  -C3^2  i    -i    S6^5  -S6^5 S6    -S6  
                                                                              
G_4+   0.00  0.00  0.87 -0.87 -0.87  0.87  0.00  0.00  0.87 -0.87 -0.87  0.87
G_5+   0.00  0.00 -0.87  0.87  0.87 -0.87  0.00  0.00 -0.87  0.87  0.87 -0.87
G_6+   0.00  0.00  0.00  0.00  0.00  0.00  0.00  0.00  0.00  0.00  0.00  0.00
G_4-   0.00  0.00  0.87 -0.87 -0.87  0.87  0.00  0.00 -0.87  0.87  0.87 -0.87
G_5-   0.00  0.00 -0.87  0.87  0.87 -0.87  0.00  0.00  0.87 -0.87 -0.87  0.87
G_6-   0.00  0.00  0.00  0.00  0.00  0.00  0.00  0.00  0.00  0.00  0.00  0.00

     the symmetry operations in each class and the name of the first element:

     E             1
          identity                                               
     -E           -1
          identity E                                             
     C3            2
          120 deg rotation - cryst. axis [0,0,1]                 
     -C3          -2
          120 deg rotation - cryst. axis [0,0,1] E               
     C3^2          3
          120 deg rotation - cryst. axis [0,0,-1]                
     -C3^2        -3
          120 deg rotation - cryst. axis [0,0,-1] E              
      i            4
          inversion                                              
     -i           -4
          inversion E                                            
     S6^5          5
          inv. 120 deg rotation - cryst. axis [0,0,1]            
     -S6^5        -5
          inv. 120 deg rotation - cryst. axis [0,0,1] E          
     S6            6
          inv. 120 deg rotation - cryst. axis [0,0,-1]           
     -S6          -6
          inv. 120 deg rotation - cryst. axis [0,0,-1] E         

   Cartesian axes

     site n.     atom                  positions (alat units)
         1           Mn1 tau(   1) = (   0.0000000   0.0000000   0.0000000  )
         2           Mn2 tau(   2) = (   0.0000000  -0.0000000   1.4937325  )
         3           Bi  tau(   3) = (   0.0000000  -0.0000000   0.6346869  )
         4           Bi  tau(   4) = (   0.0000000  -0.0000000   2.1284195  )
         5           Bi  tau(   5) = (   0.0000000  -0.0000000   0.8590456  )
         6           Bi  tau(   6) = (   0.0000000  -0.0000000   2.3527781  )
         7           Te  tau(   7) = (   0.0000000  -0.0000000   0.1992042  )
         8           Te  tau(   8) = (   0.0000000  -0.0000000   1.6929367  )
         9           Te  tau(   9) = (   0.0000000  -0.0000000   1.2945284  )
        10           Te  tau(  10) = (   0.0000000  -0.0000000   2.7882609  )
        11           Te  tau(  11) = (   0.0000000  -0.0000000   0.4392470  )
        12           Te  tau(  12) = (   0.0000000  -0.0000000   1.9329795  )
        13           Te  tau(  13) = (   0.0000000  -0.0000000   1.0544855  )
        14           Te  tau(  14) = (   0.0000000  -0.0000000   2.5482181  )

     --------------------------------------------
     DFT-D3 Dispersion Correction (3-body terms):
     --------------------------------------------
       Reference C6 values for interpolation: 

         atom   Coordination number   C6
         Mn1        0.000          1605.50
         Mn1        1.641           479.11
         Mn1        9.885           227.69
         Mn2        0.000          1605.50
         Mn2        1.641           479.11
         Mn2        9.885           227.69
         Te         0.000           851.07
         Te         0.981           850.20
         Te         1.964           837.16
         Bi         0.000          1235.06
         Bi         0.982          1188.09
         Bi         1.966          1132.10
         Bi         2.950          1067.76

       Values used:

         atom   Coordination number  R0_AB[au]  C6      C8
         Mn1        3.848            3.351    479.11  48433.79
         Mn2        3.848            3.351    479.11  48433.79
         Bi         5.275            3.890   1067.76 147315.96
         Bi         5.275            3.890   1067.76 147315.96
         Bi         5.275            3.890   1067.76 147315.96
         Bi         5.275            3.890   1067.76 147315.96
         Te         3.328            3.676    837.16  84978.06
         Te         3.328            3.676    837.16  84978.06
         Te         3.328            3.676    837.16  84978.06
         Te         3.328            3.676    837.16  84978.06
         Te         4.238            3.676    837.16  84978.05
         Te         4.238            3.676    837.16  84978.05
         Te         4.238            3.676    837.16  84978.05
         Te         4.238            3.676    837.16  84978.05

         Molecular C6 ( Ry / a.u.^6 ) =    164642.77


   Crystallographic axes

     site n.     atom                  positions (cryst. coord.)
         1           Mn1 tau(   1) = (  0.0000000  0.0000000  0.0000000  )
         2           Mn2 tau(   2) = (  0.5000000  0.5000000  0.5000000  )
         3           Bi  tau(   3) = (  0.2124500  0.2124500  0.2124500  )
         4           Bi  tau(   4) = (  0.7124500  0.7124500  0.7124500  )
         5           Bi  tau(   5) = (  0.2875500  0.2875500  0.2875500  )
         6           Bi  tau(   6) = (  0.7875500  0.7875500  0.7875500  )
         7           Te  tau(   7) = (  0.0666800  0.0666800  0.0666800  )
         8           Te  tau(   8) = (  0.5666800  0.5666800  0.5666800  )
         9           Te  tau(   9) = (  0.4333200  0.4333200  0.4333200  )
        10           Te  tau(  10) = (  0.9333200  0.9333200  0.9333200  )
        11           Te  tau(  11) = (  0.1470300  0.1470300  0.1470300  )
        12           Te  tau(  12) = (  0.6470300  0.6470300  0.6470300  )
        13           Te  tau(  13) = (  0.3529700  0.3529700  0.3529700  )
        14           Te  tau(  14) = (  0.8529700  0.8529700  0.8529700  )

     number of k points=    13  Marzari-Vanderbilt smearing, width (Ry)=  0.0200
                       cart. coord. in units 2pi/alat
        k(    1) = (   0.0000000   0.0000000   0.0000000), wk =   0.0156250
        k(    2) = (  -1.5805843  -0.9125508   0.0836830), wk =   0.0937500
        k(    3) = (   3.1611686   1.8251015  -0.1673660), wk =   0.0468750
        k(    4) = (  -1.5805843   0.9125508   0.1673660), wk =   0.0937500
        k(    5) = (   3.1611686   3.6502030  -0.0836830), wk =   0.1875000
        k(    6) = (   1.5805843   2.7376523   0.0000000), wk =   0.0937500
        k(    7) = (   3.1611686  -1.8251015  -0.3347320), wk =   0.0468750
        k(    8) = (   0.0000000   0.0000000   0.2510490), wk =   0.0312500
        k(    9) = (   4.7417528   2.7376523   0.0000000), wk =   0.0937500
        k(   10) = (   3.1611686   1.8251015   0.0836830), wk =   0.0937500
        k(   11) = (   4.7417528  -2.7376523  -0.2510490), wk =   0.0937500
        k(   12) = (   3.1611686  -3.6502030  -0.1673660), wk =   0.0937500
        k(   13) = (   0.0000000   0.0000000  -0.5020979), wk =   0.0156250

                       cryst. coord.
        k(    1) = (   0.0000000   0.0000000   0.0000000), wk =   0.0156250
        k(    2) = (   0.0000000  -0.0000000   0.2500000), wk =   0.0937500
        k(    3) = (   0.0000000   0.0000000  -0.5000000), wk =   0.0468750
        k(    4) = (  -0.0000000   0.2500000   0.2500000), wk =   0.0937500
        k(    5) = (   0.0000000   0.2500000  -0.5000000), wk =   0.1875000
        k(    6) = (   0.0000000   0.2500000  -0.2500000), wk =   0.0937500
        k(    7) = (   0.0000000  -0.5000000  -0.5000000), wk =   0.0468750
        k(    8) = (   0.2500000   0.2500000   0.2500000), wk =   0.0312500
        k(    9) = (   0.2500000   0.2500000  -0.5000000), wk =   0.0937500
        k(   10) = (   0.2500000   0.2500000  -0.2500000), wk =   0.0937500
        k(   11) = (   0.2500000  -0.5000000  -0.5000000), wk =   0.0937500
        k(   12) = (   0.2500000  -0.5000000  -0.2500000), wk =   0.0937500
        k(   13) = (  -0.5000000  -0.5000000  -0.5000000), wk =   0.0156250

     Dense  grid:   187971 G-vectors     FFT dimensions: ( 256, 256, 256)

     Dynamical RAM for                 wfc:       3.72 MB

     Dynamical RAM for     wfc (w. buffer):      52.06 MB

     Dynamical RAM for             U proj.:       0.99 MB

     Dynamical RAM for  U proj. (w. buff.):      13.80 MB

     Dynamical RAM for           str. fact:       0.36 MB

     Dynamical RAM for           local pot:       0.00 MB

     Dynamical RAM for          nlocal pot:       5.33 MB

     Dynamical RAM for                qrad:      13.03 MB

     Dynamical RAM for          rho,v,vnew:      49.08 MB

     Dynamical RAM for               rhoin:      16.36 MB

     Dynamical RAM for            rho*nmix:       5.74 MB

     Dynamical RAM for           G-vectors:       0.38 MB

     Dynamical RAM for          h,s,v(r/c):       1.26 MB

     Dynamical RAM for          <psi|beta>:       2.41 MB

     Dynamical RAM for                 psi:       7.44 MB

     Dynamical RAM for                hpsi:       7.44 MB

     Dynamical RAM for                spsi:       7.44 MB

     Dynamical RAM for      wfcinit/wfcrot:       6.62 MB

     Dynamical RAM for           addusdens:      55.66 MB

     Estimated static dynamical RAM per process >     182.84 MB

     Estimated max dynamical RAM per process >     244.24 MB

     Estimated total dynamical RAM >       7.63 GB

     Check: negative core charge=   -0.000001
     Generating pointlists ...
     new r_m :   0.0448 (alat units)  2.3181 (a.u.) for type    1
     new r_m :   0.0448 (alat units)  2.3181 (a.u.) for type    2
     new r_m :   0.0456 (alat units)  2.3625 (a.u.) for type    3
     new r_m :   0.0448 (alat units)  2.3181 (a.u.) for type    4

     Initial potential from superposition of free atoms

     starting charge     137.9938, renormalised to     138.0000
 --- in v_hubbard ---
Hub. E (dc, noflip, flip, total)    5.8799   5.8799  -0.0000   0.0000
 -------

     STARTING HUBBARD OCCUPATIONS:

     ================= HUBBARD OCCUPATIONS ================
     ------------------------ ATOM    1 ------------------------
     Tr[ns(  1)] (up, down, total) =   5.00000  0.00000  5.00000
     eigenvalues:
       0.000  0.000  0.000  0.000  0.000  1.000  1.000  1.000  1.000  1.000
     eigenvectors (columns):
       0.000  0.000  0.000  0.000  0.000  1.000  0.000  0.000  0.000  0.000
       0.000  0.000  0.000  0.000  0.000  0.000  1.000  0.000  0.000  0.000
       0.000  0.000  0.000  0.000  0.000  0.000  0.000  1.000  0.000  0.000
       0.000  0.000  0.000  0.000  0.000  0.000  0.000  0.000  1.000  0.000
       0.000  0.000  0.000  0.000  0.000  0.000  0.000  0.000  0.000  1.000
       1.000  0.000  0.000  0.000  0.000  0.000  0.000  0.000  0.000  0.000
       0.000  1.000  0.000  0.000  0.000  0.000  0.000  0.000  0.000  0.000
       0.000  0.000  1.000  0.000  0.000  0.000  0.000  0.000  0.000  0.000
       0.000  0.000  0.000  1.000  0.000  0.000  0.000  0.000  0.000  0.000
       0.000  0.000  0.000  0.000  1.000  0.000  0.000  0.000  0.000  0.000
     occupations, | n_(i1, i2)^(sigma1, sigma2) |:
       1.000  0.000  0.000  0.000  0.000  0.000  0.000  0.000  0.000  0.000
       0.000  1.000  0.000  0.000  0.000  0.000  0.000  0.000  0.000  0.000
       0.000  0.000  1.000  0.000  0.000  0.000  0.000  0.000  0.000  0.000
       0.000  0.000  0.000  1.000  0.000  0.000  0.000  0.000  0.000  0.000
       0.000  0.000  0.000  0.000  1.000  0.000  0.000  0.000  0.000  0.000
       0.000  0.000  0.000  0.000  0.000  0.000  0.000  0.000  0.000  0.000
       0.000  0.000  0.000  0.000  0.000  0.000  0.000  0.000  0.000  0.000
       0.000  0.000  0.000  0.000  0.000  0.000  0.000  0.000  0.000  0.000
       0.000  0.000  0.000  0.000  0.000  0.000  0.000  0.000  0.000  0.000
       0.000  0.000  0.000  0.000  0.000  0.000  0.000  0.000  0.000  0.000
     Atomic magnetic moment mx, my, mz =     0.000000    0.000000    5.000000
     ------------------------ ATOM    2 ------------------------
     Tr[ns(  2)] (up, down, total) =   0.00000  5.00000  5.00000
     eigenvalues:
      -0.000 -0.000 -0.000 -0.000 -0.000  1.000  1.000  1.000  1.000  1.000
     eigenvectors (columns):
       0.000  0.000  1.000  0.000  0.000  0.000  0.000  0.000  0.000  0.000
      -1.000  0.000  0.000  0.000  0.000  0.000  0.000 -0.000  0.000  0.000
       0.000  0.000  0.000  1.000  0.000  0.000  0.000  0.000  0.000  0.000
       0.000 -1.000  0.000  0.000  0.000  0.000  0.000  0.000  0.000  0.000
       0.000  0.000  0.000  0.000  1.000  0.000  0.000  0.000  0.000  0.000
       0.000  0.000 -0.000  0.000  0.000  0.000  0.000  0.000  0.000  1.000
       0.000  0.000  0.000  0.000  0.000  0.000  0.000 -1.000  0.000  0.000
       0.000  0.000  0.000 -0.000  0.000  0.000  1.000  0.000  0.000  0.000
       0.000  0.000  0.000  0.000  0.000  1.000  0.000  0.000  0.000  0.000
       0.000  0.000  0.000  0.000 -0.000  0.000  0.000  0.000  1.000  0.000
     occupations, | n_(i1, i2)^(sigma1, sigma2) |:
       0.000  0.000  0.000  0.000  0.000  0.000  0.000  0.000  0.000  0.000
       0.000  0.000  0.000  0.000  0.000  0.000  0.000  0.000  0.000  0.000
       0.000  0.000  0.000  0.000  0.000  0.000  0.000  0.000  0.000  0.000
       0.000  0.000  0.000  0.000  0.000  0.000  0.000  0.000  0.000  0.000
       0.000  0.000  0.000  0.000  0.000  0.000  0.000  0.000  0.000  0.000
       0.000  0.000  0.000  0.000  0.000  1.000  0.000  0.000  0.000  0.000
       0.000  0.000  0.000  0.000  0.000  0.000  1.000  0.000  0.000  0.000
       0.000  0.000  0.000  0.000  0.000  0.000  0.000  1.000  0.000  0.000
       0.000  0.000  0.000  0.000  0.000  0.000  0.000  0.000  1.000  0.000
       0.000  0.000  0.000  0.000  0.000  0.000  0.000  0.000  0.000  1.000
     Atomic magnetic moment mx, my, mz =     0.000000    0.000000   -5.000000

     Number of occupied Hubbard levels =   10.0000

 ==============================================================================
     atom number    1 relative position :    0.0000   0.0000   0.0000
     charge :    13.703170  (integrated on a sphere of radius 0.045)
     magnetization :          0.000000    0.000000    4.474850
     magnetization/charge:    0.000000    0.000000    0.326556
     polar coord.: r, theta, phi [deg] :     4.474850    0.000000  360.000000

 ==============================================================================

 ==============================================================================
     atom number    2 relative position :    0.0000  -0.0000   1.4937
     charge :    13.703170  (integrated on a sphere of radius 0.045)
     magnetization :          0.000000    0.000000   -4.474850
     magnetization/charge:    0.000000    0.000000   -0.326556
     polar coord.: r, theta, phi [deg] :     4.474850  180.000000  360.000000

 ==============================================================================

 ==============================================================================
     atom number    3 relative position :    0.0000  -0.0000   0.6347
     charge :    12.834973  (integrated on a sphere of radius 0.046)
     magnetization :          0.000000    0.000000   -0.000782
     magnetization/charge:    0.000000    0.000000   -0.000061
     polar coord.: r, theta, phi [deg] :     0.000782  180.000000  360.000000

 ==============================================================================

 ==============================================================================
     atom number    4 relative position :    0.0000  -0.0000   2.1284
     charge :    12.834973  (integrated on a sphere of radius 0.046)
     magnetization :         -0.000000    0.000000    0.000782
     magnetization/charge:   -0.000000    0.000000    0.000061
     polar coord.: r, theta, phi [deg] :     0.000782    0.000000  360.000000

 ==============================================================================

 ==============================================================================
     atom number    5 relative position :    0.0000  -0.0000   0.8590
     charge :    12.834973  (integrated on a sphere of radius 0.046)
     magnetization :         -0.000000    0.000000    0.000782
     magnetization/charge:   -0.000000    0.000000    0.000061
     polar coord.: r, theta, phi [deg] :     0.000782    0.000000  360.000000

 ==============================================================================

 ==============================================================================
     atom number    6 relative position :    0.0000  -0.0000   2.3528
     charge :    12.834973  (integrated on a sphere of radius 0.046)
     magnetization :          0.000000    0.000000   -0.000782
     magnetization/charge:    0.000000    0.000000   -0.000061
     polar coord.: r, theta, phi [deg] :     0.000782  180.000000  360.000000

 ==============================================================================

 ==============================================================================
     atom number    7 relative position :    0.0000  -0.0000   0.1992
     charge :     3.754741  (integrated on a sphere of radius 0.045)
     magnetization :         -0.000000    0.000000    0.000018
     magnetization/charge:   -0.000000    0.000000    0.000005
     polar coord.: r, theta, phi [deg] :     0.000018    0.000000  360.000000

 ==============================================================================

 ==============================================================================
     atom number    8 relative position :    0.0000  -0.0000   1.6929
     charge :     3.754741  (integrated on a sphere of radius 0.045)
     magnetization :          0.000000    0.000000   -0.000018
     magnetization/charge:    0.000000    0.000000   -0.000005
     polar coord.: r, theta, phi [deg] :     0.000018  180.000000  360.000000

 ==============================================================================

 ==============================================================================
     atom number    9 relative position :    0.0000  -0.0000   1.2945
     charge :     3.754741  (integrated on a sphere of radius 0.045)
     magnetization :          0.000000    0.000000   -0.000018
     magnetization/charge:    0.000000    0.000000   -0.000005
     polar coord.: r, theta, phi [deg] :     0.000018  180.000000  360.000000

 ==============================================================================

 ==============================================================================
     atom number   10 relative position :    0.0000  -0.0000   2.7883
     charge :     3.754741  (integrated on a sphere of radius 0.045)
     magnetization :         -0.000000    0.000000    0.000018
     magnetization/charge:   -0.000000    0.000000    0.000005
     polar coord.: r, theta, phi [deg] :     0.000018    0.000000  360.000000

 ==============================================================================

 ==============================================================================
     atom number   11 relative position :    0.0000  -0.0000   0.4392
     charge :     3.788443  (integrated on a sphere of radius 0.045)
     magnetization :          0.000000    0.000000   -0.035320
     magnetization/charge:    0.000000    0.000000   -0.009323
     polar coord.: r, theta, phi [deg] :     0.035320  180.000000  360.000000

 ==============================================================================

 ==============================================================================
     atom number   12 relative position :    0.0000  -0.0000   1.9330
     charge :     3.788443  (integrated on a sphere of radius 0.045)
     magnetization :         -0.000000    0.000000    0.035320
     magnetization/charge:   -0.000000    0.000000    0.009323
     polar coord.: r, theta, phi [deg] :     0.035320    0.000000  360.000000

 ==============================================================================

 ==============================================================================
     atom number   13 relative position :    0.0000  -0.0000   1.0545
     charge :     3.788443  (integrated on a sphere of radius 0.045)
     magnetization :         -0.000000    0.000000    0.035320
     magnetization/charge:   -0.000000    0.000000    0.009323
     polar coord.: r, theta, phi [deg] :     0.035320    0.000000  360.000000

 ==============================================================================

 ==============================================================================
     atom number   14 relative position :    0.0000  -0.0000   2.5482
     charge :     3.788443  (integrated on a sphere of radius 0.045)
     magnetization :          0.000000    0.000000   -0.035320
     magnetization/charge:    0.000000    0.000000   -0.009323
     polar coord.: r, theta, phi [deg] :     0.035320  180.000000  360.000000

 ==============================================================================

     Atomic wfc used for Hubbard projectors are orthogonalized

     Starting wfcs are  176 randomized atomic wfcs
     Checking if some PAW data can be deallocated... 
       PAW data deallocated on   29 nodes for type:  1
       PAW data deallocated on   29 nodes for type:  2
       PAW data deallocated on   22 nodes for type:  3
       PAW data deallocated on   16 nodes for type:  4

     total cpu time spent up to now is      125.9 secs

     Self-consistent Calculation

     iteration #  1     ecut=    60.00 Ry     beta= 0.30
     Davidson diagonalization with overlap

---- Real-time Memory Report at c_bands before calling an iterative solver
           311 MiB given to the printing process from OS
             0 MiB allocation reported by mallinfo(arena+hblkhd)
        245621 MiB available memory on the node where the printing process lives
------------------
     ethr =  1.00E-02,  avg # of iterations =  3.5

     ================= HUBBARD OCCUPATIONS ================
     ------------------------ ATOM    1 ------------------------
     Tr[ns(  1)] (up, down, total) =   4.98732  0.31113  5.29845
     eigenvalues:
       0.022  0.022  0.023  0.121  0.122  0.995  0.996  0.999  0.999  0.999
     eigenvectors (columns):
       0.000 -0.000  0.004 -0.006  0.000 -0.000 -0.000 -0.000 -1.000 -0.000
       0.000  0.000  0.000 -0.000  0.000  0.110  0.000  0.001 -0.000  0.000
       0.005  0.003  0.000 -0.000  0.003  0.526  0.511 -0.460 -0.000  0.488
       0.000 -0.002 -0.000  0.000  0.003 -0.450 -0.488 -0.537 -0.000  0.511
       0.000  0.000 -0.000 -0.000  0.000 -0.094 -0.000  0.001 -0.000  0.000
      -0.004 -0.000 -0.000  0.000 -0.000  0.001  0.000  0.000 -0.000  0.000
      -0.000  0.445  0.397 -0.585 -0.549  0.000 -0.002  0.000  0.005  0.003
       0.000 -0.000  0.000  0.000 -0.000 -0.000  0.000 -0.000  0.000  0.000
       0.000 -0.000  0.000 -0.000  0.000  0.000  0.000 -0.000  0.000  0.000
      -0.000  0.549  0.585  0.397  0.445  0.000 -0.003  0.000  0.000 -0.003
     occupations, | n_(i1, i2)^(sigma1, sigma2) |:
       0.999  0.000  0.000  0.000  0.000  0.000  0.005  0.005  0.001  0.001
       0.000  0.997  0.000  0.000  0.002  0.005  0.000  0.000  0.003  0.003
       0.000  0.000  0.997  0.002  0.000  0.005  0.000  0.000  0.003  0.003
       0.000  0.000  0.002  0.997  0.000  0.000  0.003  0.003  0.000  0.000
       0.000  0.002  0.000  0.000  0.997  0.000  0.003  0.003  0.000  0.000
       0.000  0.005  0.005  0.000  0.000  0.022  0.000  0.000  0.000  0.000
       0.005  0.000  0.000  0.003  0.003  0.000  0.087  0.004  0.002  0.047
       0.005  0.000  0.000  0.003  0.003  0.000  0.004  0.087  0.047  0.002
       0.001  0.003  0.003  0.000  0.000  0.000  0.002  0.047  0.058  0.004
       0.001  0.003  0.003  0.000  0.000  0.000  0.047  0.002  0.004  0.058
     Atomic magnetic moment mx, my, mz =     0.000000   -0.000000    4.676194
     ------------------------ ATOM    2 ------------------------
     Tr[ns(  2)] (up, down, total) =   0.31200  4.98724  5.29924
     eigenvalues:
       0.022  0.022  0.023  0.122  0.123  0.995  0.996  0.999  0.999  0.999
     eigenvectors (columns):
      -0.000 -1.000 -0.000 -0.000  0.000  0.005 -0.000  0.005  0.000  0.000
       0.000  0.000  0.000 -0.397  0.000  0.000 -0.000 -0.000  0.000 -0.000
       0.445 -0.000 -0.397 -0.430  0.549 -0.000 -0.003 -0.000  0.005  0.003
       0.549 -0.000 -0.585  0.292 -0.445 -0.000 -0.003  0.000  0.000 -0.003
       0.000  0.000  0.000  0.269 -0.000  0.000 -0.000  0.000  0.000 -0.000
       0.000 -0.000 -0.000  0.004 -0.000  0.000  0.000 -0.000  0.000 -0.000
      -0.003 -0.005 -0.000 -0.000  0.002 -0.536 -0.510 -0.461 -0.000 -0.490
       0.000  0.000  0.000  0.000  0.000  0.000 -0.000  0.000  0.000 -0.000
       0.000  0.000 -0.000  0.000  0.000 -0.000  0.000  0.000  0.000 -0.000
       0.002 -0.000  0.000  0.000  0.003  0.461  0.490 -0.536 -0.000 -0.510
     occupations, | n_(i1, i2)^(sigma1, sigma2) |:
       0.022  0.000  0.000  0.000  0.000  0.000  0.005  0.005  0.000  0.000
       0.000  0.087  0.004  0.002  0.047  0.004  0.000  0.000  0.003  0.003
       0.000  0.004  0.087  0.047  0.002  0.004  0.000  0.000  0.003  0.003
       0.000  0.002  0.047  0.058  0.004  0.001  0.003  0.003  0.000  0.000
       0.000  0.047  0.002  0.004  0.058  0.001  0.003  0.003  0.000  0.000
       0.000  0.004  0.004  0.001  0.001  0.999  0.000  0.000  0.000  0.000
       0.005  0.000  0.000  0.003  0.003  0.000  0.997  0.000  0.000  0.002
       0.005  0.000  0.000  0.003  0.003  0.000  0.000  0.997  0.002  0.000
       0.000  0.003  0.003  0.000  0.000  0.000  0.000  0.002  0.997  0.000
       0.000  0.003  0.003  0.000  0.000  0.000  0.002  0.000  0.000  0.997
     Atomic magnetic moment mx, my, mz =    -0.000000    0.000000   -4.675235

     Number of occupied Hubbard levels =   10.5977

     Threshold (ethr) on eigenvalues was too large:
     Diagonalizing with lowered threshold

     Davidson diagonalization with overlap

---- Real-time Memory Report at c_bands before calling an iterative solver
           393 MiB given to the printing process from OS
             0 MiB allocation reported by mallinfo(arena+hblkhd)
        244689 MiB available memory on the node where the printing process lives
------------------
     ethr =  4.22E-04,  avg # of iterations =  2.9

     ================= HUBBARD OCCUPATIONS ================
     ------------------------ ATOM    1 ------------------------
     Tr[ns(  1)] (up, down, total) =   4.98594  0.31074  5.29668
     eigenvalues:
       0.022  0.022  0.023  0.121  0.122  0.995  0.995  0.999  0.999  0.999
     eigenvectors (columns):
       0.000 -0.000  0.004  0.006 -0.000 -0.000  0.000  0.000  1.000  0.000
      -0.000 -0.000  0.000  0.000 -0.000  0.108 -0.000 -0.001  0.000 -0.000
       0.005  0.003  0.000  0.000 -0.003  0.526 -0.514  0.460  0.000 -0.486
       0.000 -0.002 -0.000 -0.000 -0.003 -0.451  0.486  0.537  0.000 -0.514
      -0.000  0.000 -0.000  0.000 -0.000 -0.093  0.000 -0.001  0.000 -0.000
       0.005  0.000 -0.000 -0.000  0.000  0.001 -0.000 -0.000 -0.000 -0.000
      -0.000  0.445  0.397  0.585  0.549  0.000  0.002 -0.000 -0.005 -0.003
       0.000 -0.000  0.000 -0.000  0.000 -0.000 -0.000  0.000 -0.000 -0.000
       0.000 -0.000  0.000  0.000 -0.000  0.000 -0.000  0.000 -0.000 -0.000
      -0.000  0.549  0.585 -0.397 -0.445  0.000  0.003 -0.000 -0.000  0.003
     occupations, | n_(i1, i2)^(sigma1, sigma2) |:
       0.999  0.000  0.000  0.000  0.000  0.000  0.005  0.005  0.000  0.000
       0.000  0.997  0.000  0.000  0.002  0.005  0.000  0.000  0.003  0.003
       0.000  0.000  0.997  0.002  0.000  0.005  0.000  0.000  0.003  0.003
       0.000  0.000  0.002  0.997  0.000  0.000  0.003  0.003  0.000  0.000
       0.000  0.002  0.000  0.000  0.997  0.000  0.003  0.003  0.000  0.000
       0.000  0.005  0.005  0.000  0.000  0.022  0.000  0.000  0.000  0.000
       0.005  0.000  0.000  0.003  0.003  0.000  0.086  0.004  0.002  0.047
       0.005  0.000  0.000  0.003  0.003  0.000  0.004  0.086  0.047  0.002
       0.000  0.003  0.003  0.000  0.000  0.000  0.002  0.047  0.058  0.004
       0.000  0.003  0.003  0.000  0.000  0.000  0.047  0.002  0.004  0.058
     Atomic magnetic moment mx, my, mz =     0.000000   -0.000000    4.675204
     ------------------------ ATOM    2 ------------------------
     Tr[ns(  2)] (up, down, total) =   0.31136  4.98583  5.29719
     eigenvalues:
       0.022  0.022  0.023  0.121  0.122  0.995  0.995  0.999  0.999  0.999
     eigenvectors (columns):
       1.000  0.000 -0.000  0.000 -0.000  0.005 -0.000  0.005 -0.000  0.000
      -0.000 -0.000  0.000  0.504 -0.000  0.000 -0.000 -0.000  0.000  0.000
      -0.000  0.445 -0.397  0.298 -0.550 -0.000 -0.003 -0.000 -0.005  0.003
      -0.000  0.550 -0.585 -0.202  0.445 -0.000 -0.003  0.000 -0.000 -0.003
      -0.000 -0.000  0.000 -0.341  0.000  0.000 -0.000  0.000  0.000 -0.000
       0.000 -0.000 -0.000 -0.005  0.000  0.000  0.000  0.000  0.000  0.000
       0.005 -0.003 -0.000  0.000 -0.002 -0.535 -0.513 -0.462  0.000 -0.487
       0.000 -0.000  0.000 -0.000  0.000  0.000 -0.000  0.000 -0.000 -0.000
       0.000  0.000 -0.000 -0.000 -0.000 -0.000  0.000  0.000 -0.000 -0.000
       0.000  0.002  0.000 -0.000 -0.003  0.462  0.487 -0.535  0.000 -0.513
     occupations, | n_(i1, i2)^(sigma1, sigma2) |:
       0.022  0.000  0.000  0.000  0.000  0.000  0.005  0.005  0.000  0.000
       0.000  0.087  0.004  0.002  0.047  0.004  0.000  0.000  0.003  0.003
       0.000  0.004  0.087  0.047  0.002  0.004  0.000  0.000  0.003  0.003
       0.000  0.002  0.047  0.058  0.004  0.001  0.003  0.003  0.000  0.000
       0.000  0.047  0.002  0.004  0.058  0.001  0.003  0.003  0.000  0.000
       0.000  0.004  0.004  0.001  0.001  0.999  0.000  0.000  0.000  0.000
       0.005  0.000  0.000  0.003  0.003  0.000  0.997  0.000  0.000  0.002
       0.005  0.000  0.000  0.003  0.003  0.000  0.000  0.997  0.002  0.000
       0.000  0.003  0.003  0.000  0.000  0.000  0.000  0.002  0.997  0.000
       0.000  0.003  0.003  0.000  0.000  0.000  0.002  0.000  0.000  0.997
     Atomic magnetic moment mx, my, mz =    -0.000000    0.000000   -4.674466

     Number of occupied Hubbard levels =   10.5939
 --- in v_hubbard ---
Hub. E (dc, noflip, flip, total)    6.6953   6.7815  -0.0001   0.0861
 -------

 ==============================================================================
     atom number    1 relative position :    0.0000   0.0000   0.0000
     charge :    13.692032  (integrated on a sphere of radius 0.045)
     magnetization :          0.000000   -0.000000    4.516499
     magnetization/charge:    0.000000   -0.000000    0.329863
     polar coord.: r, theta, phi [deg] :     4.516499    0.000000  360.000000

 ==============================================================================

 ==============================================================================
     atom number    2 relative position :    0.0000  -0.0000   1.4937
     charge :    13.692540  (integrated on a sphere of radius 0.045)
     magnetization :          0.000000    0.000000   -4.516249
     magnetization/charge:    0.000000    0.000000   -0.329833
     polar coord.: r, theta, phi [deg] :     4.516249  180.000000  360.000000

 ==============================================================================

 ==============================================================================
     atom number    3 relative position :    0.0000  -0.0000   0.6347
     charge :    12.702809  (integrated on a sphere of radius 0.046)
     magnetization :         -0.000000   -0.000000   -0.003363
     magnetization/charge:   -0.000000   -0.000000   -0.000265
     polar coord.: r, theta, phi [deg] :     0.003363  180.000000  360.000000

 ==============================================================================

 ==============================================================================
     atom number    4 relative position :    0.0000  -0.0000   2.1284
     charge :    12.702219  (integrated on a sphere of radius 0.046)
     magnetization :         -0.000000    0.000000    0.003256
     magnetization/charge:   -0.000000    0.000000    0.000256
     polar coord.: r, theta, phi [deg] :     0.003256    0.000000  360.000000

 ==============================================================================

 ==============================================================================
     atom number    5 relative position :    0.0000  -0.0000   0.8590
     charge :    12.702219  (integrated on a sphere of radius 0.046)
     magnetization :          0.000000    0.000000    0.003256
     magnetization/charge:    0.000000    0.000000    0.000256
     polar coord.: r, theta, phi [deg] :     0.003256    0.000000  360.000000

 ==============================================================================

 ==============================================================================
     atom number    6 relative position :    0.0000  -0.0000   2.3528
     charge :    12.702809  (integrated on a sphere of radius 0.046)
     magnetization :         -0.000000    0.000000   -0.003363
     magnetization/charge:   -0.000000    0.000000   -0.000265
     polar coord.: r, theta, phi [deg] :     0.003363  180.000000  360.000000

 ==============================================================================

 ==============================================================================
     atom number    7 relative position :    0.0000  -0.0000   0.1992
     charge :     3.799824  (integrated on a sphere of radius 0.045)
     magnetization :         -0.000000    0.000000    0.003703
     magnetization/charge:   -0.000000    0.000000    0.000975
     polar coord.: r, theta, phi [deg] :     0.003703    0.000000  360.000000

 ==============================================================================

 ==============================================================================
     atom number    8 relative position :    0.0000  -0.0000   1.6929
     charge :     3.798040  (integrated on a sphere of radius 0.045)
     magnetization :          0.000000   -0.000000   -0.003663
     magnetization/charge:    0.000000   -0.000000   -0.000964
     polar coord.: r, theta, phi [deg] :     0.003663  180.000000  360.000000

 ==============================================================================

 ==============================================================================
     atom number    9 relative position :    0.0000  -0.0000   1.2945
     charge :     3.798040  (integrated on a sphere of radius 0.045)
     magnetization :         -0.000000   -0.000000   -0.003663
     magnetization/charge:   -0.000000   -0.000000   -0.000964
     polar coord.: r, theta, phi [deg] :     0.003663  180.000000  360.000000

 ==============================================================================

 ==============================================================================
     atom number   10 relative position :    0.0000  -0.0000   2.7883
     charge :     3.799824  (integrated on a sphere of radius 0.045)
     magnetization :          0.000000    0.000000    0.003703
     magnetization/charge:    0.000000    0.000000    0.000975
     polar coord.: r, theta, phi [deg] :     0.003703    0.000000  360.000000

 ==============================================================================

 ==============================================================================
     atom number   11 relative position :    0.0000  -0.0000   0.4392
     charge :     3.873158  (integrated on a sphere of radius 0.045)
     magnetization :          0.000000    0.000000   -0.030854
     magnetization/charge:    0.000000    0.000000   -0.007966
     polar coord.: r, theta, phi [deg] :     0.030854  180.000000  360.000000

 ==============================================================================

 ==============================================================================
     atom number   12 relative position :    0.0000  -0.0000   1.9330
     charge :     3.875760  (integrated on a sphere of radius 0.045)
     magnetization :         -0.000000   -0.000000    0.031087
     magnetization/charge:   -0.000000   -0.000000    0.008021
     polar coord.: r, theta, phi [deg] :     0.031087    0.000000  360.000000

 ==============================================================================

 ==============================================================================
     atom number   13 relative position :    0.0000  -0.0000   1.0545
     charge :     3.875760  (integrated on a sphere of radius 0.045)
     magnetization :         -0.000000   -0.000000    0.031087
     magnetization/charge:   -0.000000   -0.000000    0.008021
     polar coord.: r, theta, phi [deg] :     0.031087    0.000000  360.000000

 ==============================================================================

 ==============================================================================
     atom number   14 relative position :    0.0000  -0.0000   2.5482
     charge :     3.873158  (integrated on a sphere of radius 0.045)
     magnetization :          0.000000    0.000000   -0.030854
     magnetization/charge:    0.000000    0.000000   -0.007966
     polar coord.: r, theta, phi [deg] :     0.030854  180.000000  360.000000

 ==============================================================================

     total cpu time spent up to now is      830.0 secs

     total energy              =   -7140.60260960 Ry
     estimated scf accuracy    <       0.56975010 Ry

     total magnetization       =    -0.00     0.00     0.00 Bohr mag/cell
     absolute magnetization    =    10.34 Bohr mag/cell

     iteration #  2     ecut=    60.00 Ry     beta= 0.30
     Davidson diagonalization with overlap

---- Real-time Memory Report at c_bands before calling an iterative solver
           454 MiB given to the printing process from OS
             0 MiB allocation reported by mallinfo(arena+hblkhd)
        243983 MiB available memory on the node where the printing process lives
------------------
     ethr =  4.13E-04,  avg # of iterations =  8.9

     ================= HUBBARD OCCUPATIONS ================
     ------------------------ ATOM    1 ------------------------
     Tr[ns(  1)] (up, down, total) =   4.96171  0.22185  5.18356
     eigenvalues:
       0.014  0.015  0.016  0.087  0.091  0.984  0.985  0.998  0.998  0.998
     eigenvectors (columns):
       0.000  0.000  0.006 -0.009  0.000 -0.000  0.000 -1.000  0.000  0.000
      -0.001  0.000  0.000 -0.000  0.000  0.056 -0.000 -0.000  0.001 -0.000
      -0.008 -0.005  0.000 -0.000  0.004  0.539 -0.511 -0.000 -0.454 -0.489
       0.000  0.004 -0.000 -0.000  0.005 -0.452  0.489 -0.000 -0.542 -0.511
       0.000  0.000  0.000 -0.000  0.000 -0.047  0.000 -0.000  0.001 -0.000
       0.102 -0.000 -0.000 -0.000  0.000  0.001 -0.000 -0.000  0.000 -0.000
      -0.000 -0.432  0.391 -0.589 -0.560  0.000  0.004  0.008 -0.000 -0.005
       0.000 -0.000 -0.000  0.000 -0.000 -0.000 -0.000 -0.000  0.000 -0.000
       0.000 -0.000 -0.000 -0.000  0.000 -0.000 -0.000  0.000 -0.000  0.000
      -0.000 -0.560  0.589  0.391  0.432  0.000  0.005 -0.000  0.000  0.004
     occupations, | n_(i1, i2)^(sigma1, sigma2) |:
       0.998  0.000  0.000  0.000  0.000  0.000  0.007  0.007  0.000  0.000
       0.000  0.990  0.001  0.000  0.007  0.008  0.000  0.000  0.004  0.004
       0.000  0.001  0.990  0.007  0.000  0.008  0.000  0.000  0.004  0.004
       0.000  0.000  0.007  0.992  0.000  0.000  0.004  0.004  0.000  0.000
       0.000  0.007  0.000  0.000  0.992  0.000  0.004  0.004  0.000  0.000
       0.000  0.008  0.008  0.000  0.000  0.014  0.000  0.000  0.000  0.000
       0.007  0.000  0.000  0.004  0.004  0.000  0.064  0.001  0.002  0.035
       0.007  0.000  0.000  0.004  0.004  0.000  0.001  0.064  0.035  0.002
       0.000  0.004  0.004  0.000  0.000  0.000  0.002  0.035  0.040  0.003
       0.000  0.004  0.004  0.000  0.000  0.000  0.035  0.002  0.003  0.040
     Atomic magnetic moment mx, my, mz =     0.000000   -0.000000    4.739868
     ------------------------ ATOM    2 ------------------------
     Tr[ns(  2)] (up, down, total) =   0.22425  4.96324  5.18749
     eigenvalues:
       0.014  0.015  0.016  0.088  0.092  0.985  0.985  0.998  0.998  0.998
     eigenvectors (columns):
      -1.000  0.000 -0.000  0.000 -0.000 -0.009  0.000  0.000  0.007 -0.000
       0.000  0.000 -0.001  0.261 -0.000 -0.000  0.000 -0.000 -0.000 -0.000
      -0.000 -0.432  0.391  0.528 -0.559  0.000  0.005 -0.008  0.000 -0.004
      -0.000 -0.559  0.589 -0.350  0.432  0.000  0.005 -0.000  0.000  0.004
       0.000  0.000 -0.001 -0.173  0.000 -0.000  0.000 -0.000  0.000  0.000
      -0.000 -0.000  0.000 -0.004  0.000 -0.000  0.000 -0.000 -0.000 -0.000
      -0.008  0.005  0.000  0.000 -0.004  0.538  0.507 -0.000 -0.459  0.493
       0.000 -0.000 -0.000 -0.000  0.000 -0.000  0.000 -0.000  0.000  0.000
       0.000 -0.000 -0.000 -0.000 -0.000  0.000 -0.000 -0.000  0.000  0.000
       0.000 -0.004 -0.000 -0.000 -0.005 -0.459 -0.493 -0.000 -0.538  0.507
     occupations, | n_(i1, i2)^(sigma1, sigma2) |:
       0.014  0.000  0.000  0.000  0.000  0.000  0.008  0.008  0.000  0.000
       0.000  0.064  0.001  0.002  0.035  0.007  0.000  0.000  0.004  0.004
       0.000  0.001  0.064  0.035  0.002  0.007  0.000  0.000  0.004  0.004
       0.000  0.002  0.035  0.041  0.003  0.000  0.004  0.004  0.000  0.000
       0.000  0.035  0.002  0.003  0.041  0.000  0.004  0.004  0.000  0.000
       0.000  0.007  0.007  0.000  0.000  0.998  0.000  0.000  0.000  0.000
       0.008  0.000  0.000  0.004  0.004  0.000  0.991  0.001  0.000  0.006
       0.008  0.000  0.000  0.004  0.004  0.000  0.001  0.991  0.006  0.000
       0.000  0.004  0.004  0.000  0.000  0.000  0.000  0.006  0.992  0.000
       0.000  0.004  0.004  0.000  0.000  0.000  0.006  0.000  0.000  0.992
     Atomic magnetic moment mx, my, mz =    -0.000000    0.000000   -4.738982

     Number of occupied Hubbard levels =   10.3710
 --- in v_hubbard ---
Hub. E (dc, noflip, flip, total)    6.6504   6.7347  -0.0001   0.0841
 -------

 ==============================================================================
     atom number    1 relative position :    0.0000   0.0000   0.0000
     charge :    13.659258  (integrated on a sphere of radius 0.045)
     magnetization :          0.000000   -0.000000    4.531569
     magnetization/charge:    0.000000   -0.000000    0.331758
     polar coord.: r, theta, phi [deg] :     4.531569    0.000000  360.000000

 ==============================================================================

 ==============================================================================
     atom number    2 relative position :    0.0000  -0.0000   1.4937
     charge :    13.660671  (integrated on a sphere of radius 0.045)
     magnetization :          0.000000    0.000000   -4.531397
     magnetization/charge:    0.000000    0.000000   -0.331711
     polar coord.: r, theta, phi [deg] :     4.531397  180.000000  360.000000

 ==============================================================================

 ==============================================================================
     atom number    3 relative position :    0.0000  -0.0000   0.6347
     charge :    12.694656  (integrated on a sphere of radius 0.046)
     magnetization :          0.000000   -0.000000   -0.005444
     magnetization/charge:    0.000000   -0.000000   -0.000429
     polar coord.: r, theta, phi [deg] :     0.005444  180.000000  360.000000

 ==============================================================================

 ==============================================================================
     atom number    4 relative position :    0.0000  -0.0000   2.1284
     charge :    12.693675  (integrated on a sphere of radius 0.046)
     magnetization :         -0.000000    0.000000    0.005313
     magnetization/charge:   -0.000000    0.000000    0.000419
     polar coord.: r, theta, phi [deg] :     0.005313    0.000000  360.000000

 ==============================================================================

 ==============================================================================
     atom number    5 relative position :    0.0000  -0.0000   0.8590
     charge :    12.693675  (integrated on a sphere of radius 0.046)
     magnetization :         -0.000000    0.000000    0.005313
     magnetization/charge:   -0.000000    0.000000    0.000419
     polar coord.: r, theta, phi [deg] :     0.005313    0.000000  360.000000

 ==============================================================================

 ==============================================================================
     atom number    6 relative position :    0.0000  -0.0000   2.3528
     charge :    12.694656  (integrated on a sphere of radius 0.046)
     magnetization :          0.000000   -0.000000   -0.005444
     magnetization/charge:    0.000000   -0.000000   -0.000429
     polar coord.: r, theta, phi [deg] :     0.005444  180.000000  360.000000

 ==============================================================================

 ==============================================================================
     atom number    7 relative position :    0.0000  -0.0000   0.1992
     charge :     3.822410  (integrated on a sphere of radius 0.045)
     magnetization :          0.000000    0.000000    0.006002
     magnetization/charge:    0.000000    0.000000    0.001570
     polar coord.: r, theta, phi [deg] :     0.006002    0.000000  360.000000

 ==============================================================================

 ==============================================================================
     atom number    8 relative position :    0.0000  -0.0000   1.6929
     charge :     3.820139  (integrated on a sphere of radius 0.045)
     magnetization :          0.000000   -0.000000   -0.006165
     magnetization/charge:    0.000000   -0.000000   -0.001614
     polar coord.: r, theta, phi [deg] :     0.006165  180.000000  360.000000

 ==============================================================================

 ==============================================================================
     atom number    9 relative position :    0.0000  -0.0000   1.2945
     charge :     3.820139  (integrated on a sphere of radius 0.045)
     magnetization :         -0.000000    0.000000   -0.006165
     magnetization/charge:   -0.000000    0.000000   -0.001614
     polar coord.: r, theta, phi [deg] :     0.006165  180.000000  360.000000

 ==============================================================================

 ==============================================================================
     atom number   10 relative position :    0.0000  -0.0000   2.7883
     charge :     3.822410  (integrated on a sphere of radius 0.045)
     magnetization :          0.000000    0.000000    0.006002
     magnetization/charge:    0.000000    0.000000    0.001570
     polar coord.: r, theta, phi [deg] :     0.006002    0.000000  360.000000

 ==============================================================================

 ==============================================================================
     atom number   11 relative position :    0.0000  -0.0000   0.4392
     charge :     3.858738  (integrated on a sphere of radius 0.045)
     magnetization :          0.000000    0.000000   -0.021722
     magnetization/charge:    0.000000    0.000000   -0.005629
     polar coord.: r, theta, phi [deg] :     0.021722  180.000000  360.000000

 ==============================================================================

 ==============================================================================
     atom number   12 relative position :    0.0000  -0.0000   1.9330
     charge :     3.859380  (integrated on a sphere of radius 0.045)
     magnetization :         -0.000000   -0.000000    0.021227
     magnetization/charge:   -0.000000   -0.000000    0.005500
     polar coord.: r, theta, phi [deg] :     0.021227    0.000000  360.000000

 ==============================================================================

 ==============================================================================
     atom number   13 relative position :    0.0000  -0.0000   1.0545
     charge :     3.859380  (integrated on a sphere of radius 0.045)
     magnetization :          0.000000   -0.000000    0.021227
     magnetization/charge:    0.000000   -0.000000    0.005500
     polar coord.: r, theta, phi [deg] :     0.021227    0.000000  360.000000

 ==============================================================================

 ==============================================================================
     atom number   14 relative position :    0.0000  -0.0000   2.5482
     charge :     3.858738  (integrated on a sphere of radius 0.045)
     magnetization :          0.000000    0.000000   -0.021722
     magnetization/charge:    0.000000    0.000000   -0.005629
     polar coord.: r, theta, phi [deg] :     0.021722  180.000000  360.000000

 ==============================================================================

     total cpu time spent up to now is     1211.5 secs

     total energy              =   -7140.61872801 Ry
     estimated scf accuracy    <       0.66580223 Ry

     total magnetization       =    -0.00     0.00    -0.02 Bohr mag/cell
     absolute magnetization    =    10.53 Bohr mag/cell

     iteration #  3     ecut=    60.00 Ry     beta= 0.30
     Davidson diagonalization with overlap

---- Real-time Memory Report at c_bands before calling an iterative solver
           455 MiB given to the printing process from OS
             0 MiB allocation reported by mallinfo(arena+hblkhd)
        243968 MiB available memory on the node where the printing process lives
------------------
     ethr =  4.13E-04,  avg # of iterations =  2.8

     ================= HUBBARD OCCUPATIONS ================
     ------------------------ ATOM    1 ------------------------
     Tr[ns(  1)] (up, down, total) =   4.98280  0.33637  5.31917
     eigenvalues:
       0.021  0.021  0.022  0.136  0.137  0.993  0.994  0.998  0.998  0.999
     eigenvectors (columns):
       0.000  0.000 -0.006  0.008  0.000 -0.000 -0.000 -0.000 -1.000 -0.000
      -0.000 -0.000 -0.000  0.000  0.000  0.086  0.000  0.000 -0.000  0.000
      -0.005  0.008 -0.000  0.000  0.004  0.515  0.510 -0.477 -0.000  0.490
       0.004  0.000  0.000 -0.000  0.004 -0.471 -0.490 -0.522 -0.000  0.510
      -0.000 -0.000  0.000  0.000  0.000 -0.078 -0.000  0.000  0.000  0.000
       0.000  0.010  0.000 -0.000 -0.000  0.001  0.000  0.000  0.000  0.000
      -0.440  0.000 -0.393  0.588 -0.553  0.000 -0.004  0.000  0.007  0.004
       0.000  0.000 -0.000 -0.000 -0.000 -0.000  0.000 -0.000  0.000  0.000
       0.000  0.000 -0.000  0.000  0.000  0.000  0.000 -0.000  0.000  0.000
      -0.553  0.000 -0.588 -0.393  0.440  0.000 -0.005  0.000  0.001 -0.004
     occupations, | n_(i1, i2)^(sigma1, sigma2) |:
       0.998  0.000  0.000  0.000  0.000  0.000  0.007  0.007  0.001  0.001
       0.000  0.996  0.000  0.000  0.002  0.007  0.000  0.000  0.004  0.004
       0.000  0.000  0.996  0.002  0.000  0.007  0.000  0.000  0.004  0.004
       0.000  0.000  0.002  0.996  0.000  0.000  0.004  0.004  0.000  0.000
       0.000  0.002  0.000  0.000  0.996  0.000  0.004  0.004  0.000  0.000
       0.000  0.007  0.007  0.000  0.000  0.021  0.000  0.000  0.000  0.000
       0.007  0.000  0.000  0.004  0.004  0.000  0.096  0.004  0.002  0.055
       0.007  0.000  0.000  0.004  0.004  0.000  0.004  0.096  0.055  0.002
       0.001  0.004  0.004  0.000  0.000  0.000  0.002  0.055  0.061  0.004
       0.001  0.004  0.004  0.000  0.000  0.000  0.055  0.002  0.004  0.061
     Atomic magnetic moment mx, my, mz =     0.000000   -0.000000    4.646426
     ------------------------ ATOM    2 ------------------------
     Tr[ns(  2)] (up, down, total) =   0.32850  4.98228  5.31078
     eigenvalues:
       0.020  0.020  0.021  0.133  0.134  0.993  0.994  0.998  0.998  0.998
     eigenvectors (columns):
       1.000  0.000 -0.000  0.000 -0.000 -0.008  0.000  0.008  0.000  0.000
      -0.000 -0.000  0.000  0.232 -0.000 -0.000  0.000 -0.000  0.000 -0.000
      -0.000  0.440 -0.393  0.540 -0.554  0.000  0.004 -0.000  0.007  0.004
      -0.000  0.554 -0.588 -0.361  0.440  0.000  0.005 -0.000  0.001 -0.004
      -0.000 -0.000  0.000 -0.155  0.000 -0.000  0.000 -0.000  0.000 -0.000
       0.000  0.000 -0.000 -0.003  0.000 -0.000 -0.000 -0.000  0.000 -0.000
       0.008 -0.005 -0.000  0.000 -0.003  0.517  0.506 -0.482 -0.000 -0.494
       0.000  0.000  0.000 -0.000  0.000 -0.000  0.000 -0.000  0.000  0.000
       0.000 -0.000 -0.000  0.000  0.000  0.000 -0.000 -0.000  0.000  0.000
       0.000  0.004  0.000 -0.000 -0.005 -0.482 -0.494 -0.517 -0.000 -0.506
     occupations, | n_(i1, i2)^(sigma1, sigma2) |:
       0.020  0.000  0.000  0.000  0.000  0.000  0.008  0.008  0.000  0.000
       0.000  0.094  0.004  0.002  0.053  0.007  0.001  0.001  0.004  0.004
       0.000  0.004  0.094  0.053  0.002  0.007  0.001  0.001  0.004  0.004
       0.000  0.002  0.053  0.060  0.004  0.001  0.004  0.004  0.000  0.000
       0.000  0.053  0.002  0.004  0.060  0.001  0.004  0.004  0.000  0.000
       0.000  0.007  0.007  0.001  0.001  0.998  0.000  0.000  0.000  0.000
       0.008  0.001  0.001  0.004  0.004  0.000  0.996  0.000  0.000  0.002
       0.008  0.001  0.001  0.004  0.004  0.000  0.000  0.996  0.002  0.000
       0.000  0.004  0.004  0.000  0.000  0.000  0.000  0.002  0.996  0.000
       0.000  0.004  0.004  0.000  0.000  0.000  0.002  0.000  0.000  0.996
     Atomic magnetic moment mx, my, mz =    -0.000000    0.000000   -4.653781

     Number of occupied Hubbard levels =   10.6299
 --- in v_hubbard ---
Hub. E (dc, noflip, flip, total)    6.6434   6.7279  -0.0001   0.0843
 -------

 ==============================================================================
     atom number    1 relative position :    0.0000   0.0000   0.0000
     charge :    13.648858  (integrated on a sphere of radius 0.045)
     magnetization :          0.000000   -0.000000    4.545279
     magnetization/charge:    0.000000   -0.000000    0.333015
     polar coord.: r, theta, phi [deg] :     4.545279    0.000000  360.000000

 ==============================================================================

 ==============================================================================
     atom number    2 relative position :    0.0000  -0.0000   1.4937
     charge :    13.648224  (integrated on a sphere of radius 0.045)
     magnetization :          0.000000    0.000000   -4.545722
     magnetization/charge:    0.000000    0.000000   -0.333063
     polar coord.: r, theta, phi [deg] :     4.545722  180.000000  360.000000

 ==============================================================================

 ==============================================================================
     atom number    3 relative position :    0.0000  -0.0000   0.6347
     charge :    12.684109  (integrated on a sphere of radius 0.046)
     magnetization :         -0.000000   -0.000000   -0.006947
     magnetization/charge:   -0.000000   -0.000000   -0.000548
     polar coord.: r, theta, phi [deg] :     0.006947  180.000000  360.000000

 ==============================================================================

 ==============================================================================
     atom number    4 relative position :    0.0000  -0.0000   2.1284
     charge :    12.686275  (integrated on a sphere of radius 0.046)
     magnetization :         -0.000000    0.000000    0.006711
     magnetization/charge:   -0.000000    0.000000    0.000529
     polar coord.: r, theta, phi [deg] :     0.006711    0.000000  360.000000

 ==============================================================================

 ==============================================================================
     atom number    5 relative position :    0.0000  -0.0000   0.8590
     charge :    12.686275  (integrated on a sphere of radius 0.046)
     magnetization :          0.000000    0.000000    0.006711
     magnetization/charge:    0.000000    0.000000    0.000529
     polar coord.: r, theta, phi [deg] :     0.006711    0.000000  360.000000

 ==============================================================================

 ==============================================================================
     atom number    6 relative position :    0.0000  -0.0000   2.3528
     charge :    12.684109  (integrated on a sphere of radius 0.046)
     magnetization :         -0.000000   -0.000000   -0.006947
     magnetization/charge:   -0.000000   -0.000000   -0.000548
     polar coord.: r, theta, phi [deg] :     0.006947  180.000000  360.000000

 ==============================================================================

 ==============================================================================
     atom number    7 relative position :    0.0000  -0.0000   0.1992
     charge :     3.803821  (integrated on a sphere of radius 0.045)
     magnetization :         -0.000000    0.000000    0.009803
     magnetization/charge:   -0.000000    0.000000    0.002577
     polar coord.: r, theta, phi [deg] :     0.009803    0.000000  360.000000

 ==============================================================================

 ==============================================================================
     atom number    8 relative position :    0.0000  -0.0000   1.6929
     charge :     3.805030  (integrated on a sphere of radius 0.045)
     magnetization :          0.000000    0.000000   -0.010449
     magnetization/charge:    0.000000    0.000000   -0.002746
     polar coord.: r, theta, phi [deg] :     0.010449  180.000000  360.000000

 ==============================================================================

 ==============================================================================
     atom number    9 relative position :    0.0000  -0.0000   1.2945
     charge :     3.805030  (integrated on a sphere of radius 0.045)
     magnetization :         -0.000000    0.000000   -0.010449
     magnetization/charge:   -0.000000    0.000000   -0.002746
     polar coord.: r, theta, phi [deg] :     0.010449  180.000000  360.000000

 ==============================================================================

 ==============================================================================
     atom number   10 relative position :    0.0000  -0.0000   2.7883
     charge :     3.803821  (integrated on a sphere of radius 0.045)
     magnetization :          0.000000    0.000000    0.009803
     magnetization/charge:    0.000000    0.000000    0.002577
     polar coord.: r, theta, phi [deg] :     0.009803    0.000000  360.000000

 ==============================================================================

 ==============================================================================
     atom number   11 relative position :    0.0000  -0.0000   0.4392
     charge :     3.870179  (integrated on a sphere of radius 0.045)
     magnetization :          0.000000    0.000000   -0.017317
     magnetization/charge:    0.000000    0.000000   -0.004474
     polar coord.: r, theta, phi [deg] :     0.017317  180.000000  360.000000

 ==============================================================================

 ==============================================================================
     atom number   12 relative position :    0.0000  -0.0000   1.9330
     charge :     3.873050  (integrated on a sphere of radius 0.045)
     magnetization :         -0.000000   -0.000000    0.016936
     magnetization/charge:   -0.000000   -0.000000    0.004373
     polar coord.: r, theta, phi [deg] :     0.016936    0.000000  360.000000

 ==============================================================================

 ==============================================================================
     atom number   13 relative position :    0.0000  -0.0000   1.0545
     charge :     3.873050  (integrated on a sphere of radius 0.045)
     magnetization :         -0.000000   -0.000000    0.016936
     magnetization/charge:   -0.000000   -0.000000    0.004373
     polar coord.: r, theta, phi [deg] :     0.016936    0.000000  360.000000

 ==============================================================================

 ==============================================================================
     atom number   14 relative position :    0.0000  -0.0000   2.5482
     charge :     3.870179  (integrated on a sphere of radius 0.045)
     magnetization :          0.000000    0.000000   -0.017317
     magnetization/charge:    0.000000    0.000000   -0.004474
     polar coord.: r, theta, phi [deg] :     0.017317  180.000000  360.000000

 ==============================================================================

     total cpu time spent up to now is     1541.5 secs

     total energy              =   -7140.71083642 Ry
     estimated scf accuracy    <       0.58673355 Ry

     total magnetization       =     0.00    -0.00    -0.01 Bohr mag/cell
     absolute magnetization    =    10.47 Bohr mag/cell

     iteration #  4     ecut=    60.00 Ry     beta= 0.30
     Davidson diagonalization with overlap

---- Real-time Memory Report at c_bands before calling an iterative solver
           455 MiB given to the printing process from OS
             0 MiB allocation reported by mallinfo(arena+hblkhd)
        243965 MiB available memory on the node where the printing process lives
------------------
     ethr =  4.13E-04,  avg # of iterations =  1.1

     ================= HUBBARD OCCUPATIONS ================
     ------------------------ ATOM    1 ------------------------
     Tr[ns(  1)] (up, down, total) =   4.97485  0.28105  5.25590
     eigenvalues:
       0.017  0.018  0.019  0.112  0.115  0.990  0.990  0.998  0.998  0.998
     eigenvectors (columns):
      -0.000  0.000  0.006 -0.009  0.000  0.000 -0.000  0.000  1.000  0.000
      -0.002 -0.000 -0.000 -0.000  0.000  0.000  0.039 -0.001 -0.000 -0.000
      -0.008 -0.005  0.000 -0.000  0.004 -0.501  0.530  0.466  0.000 -0.499
      -0.000  0.004 -0.000  0.000  0.005  0.499 -0.465  0.532 -0.000 -0.501
      -0.000 -0.000 -0.000 -0.000  0.000 -0.000 -0.034 -0.001 -0.000 -0.000
       0.208  0.000  0.000  0.000 -0.000  0.000  0.001 -0.000 -0.000 -0.000
       0.000 -0.439  0.391 -0.589 -0.554  0.004 -0.000 -0.000 -0.008 -0.004
       0.000  0.000  0.000  0.000 -0.000  0.000 -0.000  0.000 -0.000 -0.000
       0.000  0.000  0.000 -0.000  0.000 -0.000 -0.000  0.000 -0.000 -0.000
       0.000 -0.554  0.589  0.391  0.439  0.005 -0.000 -0.000 -0.000  0.004
     occupations, | n_(i1, i2)^(sigma1, sigma2) |:
       0.998  0.000  0.000  0.000  0.000  0.000  0.007  0.007  0.001  0.001
       0.000  0.994  0.000  0.000  0.004  0.008  0.000  0.000  0.004  0.004
       0.000  0.000  0.994  0.004  0.000  0.008  0.000  0.000  0.004  0.004
       0.000  0.000  0.004  0.994  0.000  0.000  0.004  0.004  0.000  0.000
       0.000  0.004  0.000  0.000  0.994  0.000  0.004  0.004  0.000  0.000
       0.000  0.008  0.008  0.000  0.000  0.017  0.000  0.000  0.000  0.000
       0.007  0.000  0.000  0.004  0.004  0.000  0.080  0.003  0.002  0.045
       0.007  0.000  0.000  0.004  0.004  0.000  0.003  0.080  0.045  0.002
       0.001  0.004  0.004  0.000  0.000  0.000  0.002  0.045  0.051  0.004
       0.001  0.004  0.004  0.000  0.000  0.000  0.045  0.002  0.004  0.051
     Atomic magnetic moment mx, my, mz =     0.000000   -0.000000    4.693797
     ------------------------ ATOM    2 ------------------------
     Tr[ns(  2)] (up, down, total) =   0.29413  4.97862  5.27274
     eigenvalues:
       0.018  0.019  0.020  0.118  0.120  0.991  0.993  0.998  0.998  0.998
     eigenvectors (columns):
      -1.000 -0.000  0.000  0.000 -0.000  0.009 -0.000 -0.008 -0.000 -0.000
      -0.000  0.000 -0.000  0.136 -0.000  0.000 -0.000  0.000 -0.000  0.000
       0.000 -0.440  0.394  0.571 -0.554 -0.000 -0.005  0.000 -0.008 -0.004
       0.000 -0.554  0.587 -0.383  0.440 -0.000 -0.005  0.000 -0.001  0.004
      -0.000  0.000 -0.000 -0.091  0.000  0.000 -0.000 -0.000 -0.000  0.000
       0.000 -0.000  0.000 -0.002  0.000  0.000  0.000  0.000 -0.000  0.000
      -0.008  0.005  0.000  0.000 -0.004 -0.523 -0.509  0.476  0.000  0.491
      -0.000 -0.000  0.000 -0.000 -0.000  0.000 -0.000 -0.000 -0.000  0.000
       0.000 -0.000  0.000  0.000 -0.000 -0.000  0.000 -0.000 -0.000  0.000
      -0.000 -0.004 -0.000 -0.000 -0.005  0.476  0.491  0.523  0.000  0.509
     occupations, | n_(i1, i2)^(sigma1, sigma2) |:
       0.018  0.000  0.000  0.000  0.000  0.000  0.008  0.008  0.000  0.000
       0.000  0.084  0.003  0.002  0.047  0.007  0.001  0.001  0.004  0.004
       0.000  0.003  0.084  0.047  0.002  0.007  0.001  0.001  0.004  0.004
       0.000  0.002  0.047  0.054  0.004  0.001  0.004  0.004  0.000  0.000
       0.000  0.047  0.002  0.004  0.054  0.001  0.004  0.004  0.000  0.000
       0.000  0.007  0.007  0.001  0.001  0.998  0.000  0.000  0.000  0.000
       0.008  0.001  0.001  0.004  0.004  0.000  0.995  0.000  0.000  0.003
       0.008  0.001  0.001  0.004  0.004  0.000  0.000  0.995  0.003  0.000
       0.000  0.004  0.004  0.000  0.000  0.000  0.000  0.003  0.995  0.000
       0.000  0.004  0.004  0.000  0.000  0.000  0.003  0.000  0.000  0.995
     Atomic magnetic moment mx, my, mz =    -0.000000    0.000000   -4.684490

     Number of occupied Hubbard levels =   10.5286
 --- in v_hubbard ---
Hub. E (dc, noflip, flip, total)    6.6309   6.7149  -0.0001   0.0839
 -------

 ==============================================================================
     atom number    1 relative position :    0.0000   0.0000   0.0000
     charge :    13.634985  (integrated on a sphere of radius 0.045)
     magnetization :          0.000000   -0.000000    4.558783
     magnetization/charge:    0.000000   -0.000000    0.334345
     polar coord.: r, theta, phi [deg] :     4.558783    0.000000  360.000000

 ==============================================================================

 ==============================================================================
     atom number    2 relative position :    0.0000  -0.0000   1.4937
     charge :    13.639619  (integrated on a sphere of radius 0.045)
     magnetization :          0.000000    0.000000   -4.558581
     magnetization/charge:    0.000000    0.000000   -0.334216
     polar coord.: r, theta, phi [deg] :     4.558581  180.000000  360.000000

 ==============================================================================

 ==============================================================================
     atom number    3 relative position :    0.0000  -0.0000   0.6347
     charge :    12.672985  (integrated on a sphere of radius 0.046)
     magnetization :          0.000000   -0.000000   -0.008318
[...]
     9.1092   9.1097   9.4261   9.4280   9.5916   9.5925   9.7783   9.7802
     9.8575   9.8610   9.9950   9.9964  10.0837  10.0845  10.2547  10.2560
    10.4358  10.4382  10.4676  10.4689  10.5867  10.5878

     occupation numbers 
     1.0000   1.0000   1.0000   1.0000   1.0000   1.0000   1.0000   1.0000
     1.0000   1.0000   1.0000   1.0000   1.0000   1.0000   1.0000   1.0000
     1.0000   1.0000   1.0000   1.0000   1.0000   1.0000   1.0000   1.0000
     1.0000   1.0000   1.0000   1.0000   1.0000   1.0000   1.0000   1.0000
     1.0000   1.0000   1.0000   1.0000   1.0000   1.0000   1.0000   1.0000
     1.0000   1.0000   1.0000   1.0000   1.0000   1.0000   1.0000   1.0000
     1.0000   1.0000   1.0000   1.0000   1.0000   1.0000   1.0000   1.0000
     1.0000   1.0000   1.0000   1.0000   1.0000   1.0000   1.0000   1.0000
     1.0000   1.0000   1.0000   1.0000   1.0000   1.0000   1.0000   1.0000
     1.0000   1.0000   1.0000   1.0000   1.0000   1.0000   1.0000   1.0000
     1.0000   1.0000   1.0000   1.0000   1.0000   1.0000   1.0000   1.0000
     1.0000   1.0000   1.0000   1.0000   1.0000   1.0000   1.0000   1.0000
     1.0000   1.0000   1.0000   1.0000   1.0000   1.0000   1.0000   1.0000
     1.0000   1.0000   1.0000   1.0000   1.0000   1.0000   1.0000   1.0000
     1.0000   1.0000   1.0000   1.0000   1.0000   1.0000   1.0000   1.0000
     1.0000   1.0000   1.0000   1.0000   1.0000   1.0000   1.0000   1.0000
     1.0002   1.0002   1.0005   1.0005   1.0438   1.0442   1.0832   1.0832
     0.9834   0.9816   0.0000   0.0000   0.0000   0.0000   0.0000   0.0000
     0.0000   0.0000   0.0000   0.0000   0.0000   0.0000   0.0000   0.0000
     0.0000   0.0000   0.0000   0.0000   0.0000   0.0000   0.0000   0.0000
     0.0000   0.0000   0.0000   0.0000   0.0000   0.0000

          k = 3.1612 1.8251 0.0837 ( 23506 PWs)   bands (ev):

   -75.0029 -74.9991 -70.2059 -70.2047 -44.0968 -44.0965 -43.6942 -43.6884
   -43.1886 -43.1883 -39.1426 -39.1387 -38.7306 -38.7287 -38.3903 -38.3865
   -16.9564 -16.9563 -16.9561 -16.9560 -16.9551 -16.9551 -16.9517 -16.9517
   -16.9464 -16.9464 -16.9426 -16.9426 -16.9391 -16.9391 -16.9389 -16.9389
   -13.9920 -13.9920 -13.9787 -13.9787 -13.9763 -13.9762 -13.9761 -13.9760
   -13.9708 -13.9707 -13.9671 -13.9671 -13.9640 -13.9640 -13.9603 -13.9603
   -13.9556 -13.9555 -13.9533 -13.9533 -13.9500 -13.9499 -13.9332 -13.9331
    -3.8251  -3.8226  -3.8210  -3.8185  -3.7810  -3.7792  -3.7724  -3.7706
    -3.1824  -3.1806  -3.1466  -3.1450  -3.0791  -3.0781  -2.9950  -2.9947
    -2.3707  -2.3703  -2.3414  -2.3408  -2.1748  -2.1740  -2.1536  -2.1531
     1.7850   1.7863   1.9397   1.9405   1.9939   1.9949   2.2158   2.2173
     2.3114   2.3135   2.5837   2.5858   2.7244   2.7272   2.9747   2.9760
     3.1219   3.1227   3.6391   3.6394   3.7444   3.7472   3.9018   3.9050
     4.2064   4.2071   4.4740   4.4763   4.6459   4.6474   4.6993   4.7019
     4.7306   4.7329   4.8733   4.8782   5.0870   5.0891   5.2625   5.2651
     5.5222   5.5261   5.8516   5.8533   5.9689   5.9702   6.0850   6.0859
     6.3122   6.3152   6.4216   6.4219   6.7466   6.7471   7.0140   7.0149
     7.1838   7.1851   8.2598   8.2628   8.4762   8.4796   8.7741   8.7755
     8.8950   8.8981   9.3516   9.3520   9.5296   9.5321   9.6142   9.6177
     9.7106   9.7115   9.8113   9.8129  10.1658  10.1673  10.3067  10.3076
    10.4798  10.4812  10.5443  10.5451  10.6434  10.6449

     occupation numbers 
     1.0000   1.0000   1.0000   1.0000   1.0000   1.0000   1.0000   1.0000
     1.0000   1.0000   1.0000   1.0000   1.0000   1.0000   1.0000   1.0000
     1.0000   1.0000   1.0000   1.0000   1.0000   1.0000   1.0000   1.0000
     1.0000   1.0000   1.0000   1.0000   1.0000   1.0000   1.0000   1.0000
     1.0000   1.0000   1.0000   1.0000   1.0000   1.0000   1.0000   1.0000
     1.0000   1.0000   1.0000   1.0000   1.0000   1.0000   1.0000   1.0000
     1.0000   1.0000   1.0000   1.0000   1.0000   1.0000   1.0000   1.0000
     1.0000   1.0000   1.0000   1.0000   1.0000   1.0000   1.0000   1.0000
     1.0000   1.0000   1.0000   1.0000   1.0000   1.0000   1.0000   1.0000
     1.0000   1.0000   1.0000   1.0000   1.0000   1.0000   1.0000   1.0000
     1.0000   1.0000   1.0000   1.0000   1.0000   1.0000   1.0000   1.0000
     1.0000   1.0000   1.0000   1.0000   1.0000   1.0000   1.0000   1.0000
     1.0000   1.0000   1.0000   1.0000   1.0000   1.0000   1.0000   1.0000
     1.0000   1.0000   1.0000   1.0000   1.0000   1.0000   1.0000   1.0000
     1.0000   1.0000   1.0000   1.0000   1.0000   1.0000   1.0000   1.0000
     1.0000   1.0000   1.0000   1.0000   1.0000   1.0000   1.0000   1.0000
     1.0000   1.0000   1.0000   1.0000   1.0006   1.0006   1.0254   1.0257
     1.0778   1.0781   0.0000   0.0000   0.0000   0.0000   0.0000   0.0000
     0.0000   0.0000   0.0000   0.0000   0.0000   0.0000   0.0000   0.0000
     0.0000   0.0000   0.0000   0.0000   0.0000   0.0000   0.0000   0.0000
     0.0000   0.0000   0.0000   0.0000   0.0000   0.0000

          k = 4.7418-2.7377-0.2510 ( 23474 PWs)   bands (ev):

   -75.0029 -74.9991 -70.2059 -70.2047 -44.0967 -44.0964 -43.6943 -43.6884
   -43.1884 -43.1881 -39.1423 -39.1385 -38.7306 -38.7288 -38.3900 -38.3862
   -16.9568 -16.9567 -16.9559 -16.9558 -16.9555 -16.9554 -16.9535 -16.9534
   -16.9478 -16.9477 -16.9443 -16.9442 -16.9390 -16.9389 -16.9387 -16.9386
   -13.9920 -13.9918 -13.9769 -13.9768 -13.9734 -13.9733 -13.9726 -13.9725
   -13.9700 -13.9699 -13.9677 -13.9676 -13.9643 -13.9643 -13.9623 -13.9622
   -13.9602 -13.9601 -13.9573 -13.9572 -13.9541 -13.9540 -13.9353 -13.9352
    -4.9411  -4.9407  -4.9316  -4.9312  -4.7355  -4.7351  -4.7198  -4.7195
    -3.4208  -3.4195  -3.3408  -3.3406  -3.0159  -3.0147  -2.9094  -2.9091
    -1.6670  -1.6657  -1.5541  -1.5527  -1.2963  -1.2952  -1.2116  -1.2102
     1.8930   1.8946   1.9445   1.9456   2.0092   2.0124   2.0987   2.0995
     2.1362   2.1373   3.3332   3.3348   3.5061   3.5084   3.6944   3.6962
     4.0772   4.0793   4.1677   4.1685   4.2533   4.2537   4.4928   4.4967
     4.5799   4.5840   5.0187   5.0226   5.1596   5.1622   5.2456   5.2494
     5.3293   5.3328   5.7735   5.7759   5.8581   5.8605   5.9333   5.9367
     6.0653   6.0672   6.2186   6.2191   6.3089   6.3123   6.4697   6.4716
     6.6563   6.6575   6.8316   6.8329   7.0754   7.0760   7.1916   7.1920
     7.4127   7.4134   8.2538   8.2578   8.5452   8.5498   8.9587   8.9596
     9.1324   9.1326   9.3656   9.3675   9.6127   9.6145   9.8367   9.8393
     9.8667   9.8681  10.0104  10.0123  10.1246  10.1263  10.2027  10.2043
    10.3762  10.3767  10.4402  10.4420  10.6189  10.6215

     occupation numbers 
     1.0000   1.0000   1.0000   1.0000   1.0000   1.0000   1.0000   1.0000
     1.0000   1.0000   1.0000   1.0000   1.0000   1.0000   1.0000   1.0000
     1.0000   1.0000   1.0000   1.0000   1.0000   1.0000   1.0000   1.0000
     1.0000   1.0000   1.0000   1.0000   1.0000   1.0000   1.0000   1.0000
     1.0000   1.0000   1.0000   1.0000   1.0000   1.0000   1.0000   1.0000
     1.0000   1.0000   1.0000   1.0000   1.0000   1.0000   1.0000   1.0000
     1.0000   1.0000   1.0000   1.0000   1.0000   1.0000   1.0000   1.0000
     1.0000   1.0000   1.0000   1.0000   1.0000   1.0000   1.0000   1.0000
     1.0000   1.0000   1.0000   1.0000   1.0000   1.0000   1.0000   1.0000
     1.0000   1.0000   1.0000   1.0000   1.0000   1.0000   1.0000   1.0000
     1.0000   1.0000   1.0000   1.0000   1.0000   1.0000   1.0000   1.0000
     1.0000   1.0000   1.0000   1.0000   1.0000   1.0000   1.0000   1.0000
     1.0000   1.0000   1.0000   1.0000   1.0000   1.0000   1.0000   1.0000
     1.0000   1.0000   1.0000   1.0000   1.0000   1.0000   1.0000   1.0000
     1.0000   1.0000   1.0000   1.0000   1.0000   1.0000   1.0000   1.0000
     1.0000   1.0000   1.0000   1.0000   1.0000   1.0000   1.0000   1.0000
     1.0001   1.0001   1.0026   1.0026   1.0433   1.0435   1.0794   1.0795
     0.9156   0.9142   0.0000   0.0000   0.0000   0.0000   0.0000   0.0000
     0.0000   0.0000   0.0000   0.0000   0.0000   0.0000   0.0000   0.0000
     0.0000   0.0000   0.0000   0.0000   0.0000   0.0000   0.0000   0.0000
     0.0000   0.0000   0.0000   0.0000   0.0000   0.0000

          k = 3.1612-3.6502-0.1674 ( 23556 PWs)   bands (ev):

   -75.0029 -74.9991 -70.2059 -70.2047 -44.0968 -44.0966 -43.6942 -43.6884
   -43.1886 -43.1883 -39.1426 -39.1387 -38.7306 -38.7287 -38.3903 -38.3865
   -16.9566 -16.9563 -16.9562 -16.9556 -16.9553 -16.9545 -16.9524 -16.9522
   -16.9464 -16.9459 -16.9435 -16.9420 -16.9397 -16.9395 -16.9389 -16.9386
   -13.9926 -13.9894 -13.9775 -13.9769 -13.9765 -13.9734 -13.9725 -13.9722
   -13.9699 -13.9696 -13.9691 -13.9690 -13.9651 -13.9645 -13.9623 -13.9616
   -13.9582 -13.9564 -13.9543 -13.9540 -13.9520 -13.9517 -13.9341 -13.9335
    -3.9815  -3.9811  -3.9794  -3.9788  -3.8313  -3.8310  -3.8261  -3.8256
    -2.9929  -2.9909  -2.9614  -2.9608  -2.8438  -2.8420  -2.7697  -2.7690
    -2.3784  -2.3775  -2.3750  -2.3745  -2.3024  -2.3017  -2.2835  -2.2824
     1.9289   1.9300   1.9306   1.9313   2.0612   2.0636   2.1471   2.1482
     2.1984   2.1995   2.9680   2.9705   3.0077   3.0109   3.1730   3.1757
     3.1884   3.1915   3.5008   3.5021   3.6206   3.6217   3.7076   3.7104
     3.7735   3.7756   4.0676   4.0713   4.1471   4.1513   4.3561   4.3597
     4.4118   4.4146   4.9190   4.9214   4.9368   4.9371   5.3849   5.3880
     5.4232   5.4252   5.7506   5.7515   5.7948   5.7951   6.1606   6.1616
     6.1867   6.1885   6.5160   6.5163   6.7875   6.7891   6.9797   6.9804
     7.2724   7.2738   8.4543   8.4579   8.5754   8.5788   9.2305   9.2322
     9.3374   9.3398   9.6188   9.6209   9.8595   9.8600  10.0592  10.0605
    10.2123  10.2135  10.2849  10.2860  10.3389  10.3402  10.4994  10.5012
    10.5059  10.5062  10.6027  10.6036  10.8445  10.8459

     occupation numbers 
     1.0000   1.0000   1.0000   1.0000   1.0000   1.0000   1.0000   1.0000
     1.0000   1.0000   1.0000   1.0000   1.0000   1.0000   1.0000   1.0000
     1.0000   1.0000   1.0000   1.0000   1.0000   1.0000   1.0000   1.0000
     1.0000   1.0000   1.0000   1.0000   1.0000   1.0000   1.0000   1.0000
     1.0000   1.0000   1.0000   1.0000   1.0000   1.0000   1.0000   1.0000
     1.0000   1.0000   1.0000   1.0000   1.0000   1.0000   1.0000   1.0000
     1.0000   1.0000   1.0000   1.0000   1.0000   1.0000   1.0000   1.0000
     1.0000   1.0000   1.0000   1.0000   1.0000   1.0000   1.0000   1.0000
     1.0000   1.0000   1.0000   1.0000   1.0000   1.0000   1.0000   1.0000
     1.0000   1.0000   1.0000   1.0000   1.0000   1.0000   1.0000   1.0000
     1.0000   1.0000   1.0000   1.0000   1.0000   1.0000   1.0000   1.0000
     1.0000   1.0000   1.0000   1.0000   1.0000   1.0000   1.0000   1.0000
     1.0000   1.0000   1.0000   1.0000   1.0000   1.0000   1.0000   1.0000
     1.0000   1.0000   1.0000   1.0000   1.0000   1.0000   1.0000   1.0000
     1.0000   1.0000   1.0000   1.0000   1.0000   1.0000   1.0000   1.0000
     1.0000   1.0000   1.0000   1.0000   1.0000   1.0000   1.0000   1.0000
     1.0000   1.0000   1.0000   1.0000   1.0013   1.0013   1.0179   1.0180
     1.0761   1.0756   0.0000   0.0000   0.0000   0.0000   0.0000   0.0000
     0.0000   0.0000   0.0000   0.0000   0.0000   0.0000   0.0000   0.0000
     0.0000   0.0000   0.0000   0.0000   0.0000   0.0000   0.0000   0.0000
     0.0000   0.0000   0.0000   0.0000   0.0000   0.0000

          k = 0.0000 0.0000-0.5021 ( 23456 PWs)   bands (ev):

   -75.0029 -74.9991 -70.2059 -70.2047 -44.0965 -44.0963 -43.6943 -43.6885
   -43.1882 -43.1880 -39.1421 -39.1382 -38.7307 -38.7288 -38.3898 -38.3860
   -16.9584 -16.9583 -16.9554 -16.9554 -16.9553 -16.9553 -16.9550 -16.9549
   -16.9493 -16.9493 -16.9459 -16.9458 -16.9388 -16.9387 -16.9384 -16.9383
   -13.9926 -13.9925 -13.9772 -13.9772 -13.9752 -13.9751 -13.9736 -13.9735
   -13.9684 -13.9683 -13.9661 -13.9661 -13.9660 -13.9659 -13.9618 -13.9617
   -13.9611 -13.9609 -13.9589 -13.9588 -13.9568 -13.9566 -13.9370 -13.9368
    -5.4719  -5.4717  -5.4670  -5.4670  -5.2445  -5.2444  -5.2435  -5.2433
    -3.7608  -3.7589  -3.7054  -3.7048  -3.1764  -3.1747  -3.1691  -3.1686
    -1.3406  -1.3396  -1.3046  -1.3025  -0.6160  -0.6145  -0.6083  -0.6075
     1.8473   1.8486   1.8766   1.8777   1.9241   1.9276   2.1208   2.1217
     2.1390   2.1399   4.0835   4.0837   4.1284   4.1290   4.9057   4.9116
     4.9131   4.9188   5.4212   5.4228   5.4361   5.4382   5.7340   5.7389
     5.7823   5.7891   6.1193   6.1200   6.2999   6.3052   6.3065   6.3073
     6.3260   6.3295   6.3624   6.3627   6.4580   6.4593   6.6368   6.6374
     6.7413   6.7419   6.9154   6.9177   6.9178   6.9184   6.9674   6.9692
     7.2605   7.2618   7.2976   7.2990   7.5360   7.5378   7.5444   7.5459
     7.6652   7.6656   7.8318   7.8325   7.9246   7.9267   8.0597   8.0608
     8.1071   8.1090   9.0224   9.0231   9.2258   9.2283   9.3145   9.3161
     9.5344   9.5347   9.5585   9.5596   9.5781   9.5795   9.7135   9.7148
     9.9965   9.9976  10.0871  10.0902  10.1613  10.1880

     occupation numbers 
     1.0000   1.0000   1.0000   1.0000   1.0000   1.0000   1.0000   1.0000
     1.0000   1.0000   1.0000   1.0000   1.0000   1.0000   1.0000   1.0000
     1.0000   1.0000   1.0000   1.0000   1.0000   1.0000   1.0000   1.0000
     1.0000   1.0000   1.0000   1.0000   1.0000   1.0000   1.0000   1.0000
     1.0000   1.0000   1.0000   1.0000   1.0000   1.0000   1.0000   1.0000
     1.0000   1.0000   1.0000   1.0000   1.0000   1.0000   1.0000   1.0000
     1.0000   1.0000   1.0000   1.0000   1.0000   1.0000   1.0000   1.0000
     1.0000   1.0000   1.0000   1.0000   1.0000   1.0000   1.0000   1.0000
     1.0000   1.0000   1.0000   1.0000   1.0000   1.0000   1.0000   1.0000
     1.0000   1.0000   1.0000   1.0000   1.0000   1.0000   1.0000   1.0000
     1.0000   1.0000   1.0000   1.0000   1.0000   1.0000   1.0000   1.0000
     1.0000   1.0000   1.0000   1.0000   1.0000   1.0000   1.0000   1.0000
     1.0000   1.0000   1.0000   1.0000   1.0000   1.0000   1.0000   1.0000
     1.0000   1.0000   1.0000   1.0000   1.0000   1.0000   1.0000   1.0000
     1.0000   1.0000   1.0000   1.0000   1.0000   1.0000   1.0001   1.0001
     1.0006   1.0006   1.0083   1.0086   1.0086   1.0087   1.0156   1.0159
     1.0796   1.0793   1.0641   1.0632   0.6083   0.6033   0.5851   0.5811
     0.2801   0.2795   0.0572   0.0567   0.0174   0.0169   0.0021   0.0020
     0.0009   0.0008   0.0000   0.0000   0.0000   0.0000   0.0000   0.0000
     0.0000   0.0000   0.0000   0.0000   0.0000   0.0000   0.0000   0.0000
     0.0000   0.0000   0.0000   0.0000   0.0000   0.0000

     the Fermi energy is     7.6133 ev

!    total energy              =   -7140.76368371 Ry
     total all-electron energy =   -286038.830150 Ry
     estimated scf accuracy    <       0.00002642 Ry
     smearing contrib. (-TS)   =       0.00913587 Ry
     internal energy E=F+TS    =   -7140.77281958 Ry

     The total energy is F=E-TS. E is the sum of the following terms:
     one-electron contribution =    -651.83276474 Ry
     hartree contribution      =     399.20000174 Ry
     xc contribution           =    -311.91743333 Ry
     ewald contribution        =    -672.20711716 Ry
     DFT-D3 Dispersion         =      -0.28928916 Ry
     Hubbard energy            =       0.08314659 Ry
     one-center paw contrib.   =   -5903.80936352 Ry
      -> PAW hartree energy AE =     152.28865782 Ry
      -> PAW hartree energy PS =    -151.34804378 Ry
      -> PAW xc energy AE      =    -103.38936395 Ry
      -> PAW xc energy PS      =      23.68072022 Ry
      -> total E_H with PAW    =     400.14061579 Ry
      -> total E_XC with PAW   =    -391.62607705 Ry

     total magnetization       =     0.00    -0.00    -0.00 Bohr mag/cell
     absolute magnetization    =    10.48 Bohr mag/cell

     convergence has been achieved in  27 iterations

     Writing all to output data dir ./tmp/MnBi2Te4.save/
 
     init_run     :    118.83s CPU    123.02s WALL (       1 calls)
     electrons    :  10421.48s CPU  10763.45s WALL (       1 calls)

     Called by init_run:
     wfcinit      :    116.13s CPU    120.09s WALL (       1 calls)
     wfcinit:atom :      0.02s CPU      0.02s WALL (      13 calls)
     wfcinit:wfcr :    114.12s CPU    118.02s WALL (      13 calls)
     potinit      :      1.41s CPU      1.54s WALL (       1 calls)
     hinit0       :      0.53s CPU      0.62s WALL (       1 calls)

     Called by electrons:
     c_bands      :   8122.13s CPU   8404.97s WALL (      28 calls)
     sum_band     :   2246.59s CPU   2302.01s WALL (      28 calls)
     v_of_rho     :     17.30s CPU     19.21s WALL (      28 calls)
     v_h          :      0.49s CPU      0.51s WALL (      28 calls)
     v_xc         :     16.80s CPU     18.70s WALL (      28 calls)
     newd         :     18.41s CPU     19.65s WALL (      28 calls)
     PAW_pot      :     15.53s CPU     15.85s WALL (      28 calls)
     mix_rho      :      1.71s CPU      1.87s WALL (      28 calls)
     energy_dftd3 :      0.05s CPU      0.05s WALL (       1 calls)

     Called by c_bands:
     init_us_2    :      1.93s CPU      1.96s WALL (     754 calls)
     init_us_2:cp :      1.93s CPU      1.96s WALL (     754 calls)
     cegterg      :   8100.34s CPU   8382.93s WALL (     364 calls)

     Called by sum_band:
     sum_band:wei :      0.06s CPU      0.07s WALL (      28 calls)
     sum_band:loo :   2214.94s CPU   2267.88s WALL (      28 calls)
     sum_band:buf :      0.62s CPU      0.64s WALL (     364 calls)
     sum_band:ini :      0.91s CPU      0.92s WALL (     364 calls)
     sum_band:cal :     11.75s CPU     12.94s WALL (     364 calls)
     sum_band:bec :      5.02s CPU      5.04s WALL (     364 calls)
     addusdens    :     23.92s CPU     25.98s WALL (      28 calls)
                                        0.00s GPU  (      28 calls)
     addusd:skk   :      0.01s CPU      0.01s WALL (     112 calls)
                                        0.00s GPU  (     112 calls)

     Called by *egterg:
     cdiaghg      :     41.04s CPU     42.22s WALL (    1932 calls)
     cegterg:over :     22.79s CPU     23.96s WALL (    1581 calls)
     cegterg:upda :     17.66s CPU     18.00s WALL (    1581 calls)
     cegterg:last :     32.36s CPU     33.22s WALL (     762 calls)
     cdiaghg:chol :      3.08s CPU      3.11s WALL (    1932 calls)
     cdiaghg:inve :      0.74s CPU      0.75s WALL (    1932 calls)
     cdiaghg:para :      8.07s CPU      8.81s WALL (    3864 calls)
     h_psi        :   8059.39s CPU   8341.63s WALL (    1958 calls)
     s_psi        :     31.25s CPU     31.44s WALL (    1971 calls)
     g_psi        :      0.47s CPU      0.48s WALL (    1581 calls)

     Called by h_psi:
     h_psi:calbec :     32.58s CPU     36.14s WALL (    1958 calls)
     vloc_psi     :   7976.41s CPU   8254.63s WALL (    1958 calls)
     add_vuspsi   :     29.42s CPU     29.60s WALL (    1958 calls)
     vhpsi        :     19.18s CPU     19.46s WALL (    1958 calls)

     General routines
     calbec       :     44.71s CPU     49.49s WALL (    2335 calls)
     fft          :      6.41s CPU      7.44s WALL (     810 calls)
     ffts         :      0.68s CPU      0.82s WALL (     112 calls)
     fftw         :   5716.22s CPU   6010.33s WALL (  768668 calls)
     davcio       :      0.00s CPU      0.03s WALL (      13 calls)
 
     Parallel routines

     Hubbard U routines
     new_ns_nc    :      4.87s CPU      4.98s WALL (      28 calls)
     vhpsi        :     19.18s CPU     19.46s WALL (    1958 calls)

     PAW routines
     PAW_pot      :     15.53s CPU     15.85s WALL (      28 calls)
     PAW_symme    :      0.13s CPU      0.16s WALL (      56 calls)
 
     PWSCF        :      2h55m CPU      3h 1m WALL

 
   This run was terminated on:  13:18:11  14Jul2025            

=------------------------------------------------------------------------------=
   JOB DONE.
=------------------------------------------------------------------------------=
