
     Program PWSCF v.7.2 starts on  9Oct2025 at  2:47:10 

     This program is part of the open-source Quantum ESPRESSO suite
     for quantum simulation of materials; please cite
         "P. Giannozzi et al., J. Phys.:Condens. Matter 21 395502 (2009);
         "P. Giannozzi et al., J. Phys.:Condens. Matter 29 465901 (2017);
         "P. Giannozzi et al., J. Chem. Phys. 152 154105 (2020);
          URL http://www.quantum-espresso.org", 
     in publications or presentations arising from this work. More details at
     http://www.quantum-espresso.org/quote

     Parallel version (MPI), running on    32 processors

     MPI processes distributed on     1 nodes
     1815 MiB available memory on the printing compute node when the environment starts
 
     Reading input from MnBi2Te4.bands.in

     Current dimensions of program PWSCF are:
     Max number of different atomic species (ntypx) = 10
     Max number of k-points (npk) =  40000
     Max angular momentum in pseudopotentials (lmaxx) =  4

     Atomic positions and unit cell read from directory:
     ./tmp/MnBi2Te4.save/
     Atomic positions from file used, from input discarded
 
     file Mn.rel-pbe-spn-kjpaw_psl.0.3.1.UPF: wavefunction(s)  3P 3P 3D renormalized
     file Mn.rel-pbe-spn-kjpaw_psl.0.3.1.UPF: wavefunction(s)  3P 3P 3D renormalized
     file Bi.rel-pbe-dn-kjpaw_psl.1.0.0.UPF: wavefunction(s)  6P 6P 5D 5D renormalized
     file Te.rel-pbe-n-kjpaw_psl.1.0.0.UPF: wavefunction(s)  5S 5P 5P renormalized

     Fixed quantization axis for GGA:     0.000000    0.000000    1.000000
 
     R & G space division:  proc/nbgrp/npool/nimage =      32
     Subspace diagonalization in iterative solution of the eigenvalue problem:
     one sub-group per band group will be used
     scalapack distributed-memory algorithm (size of sub-group:  2*  2 procs)

 
     Parallelization info
     --------------------
     sticks:   dense  smooth     PW     G-vecs:    dense   smooth      PW
     Min         252     252     70                 5873     5873     871
     Max         253     253     71                 5875     5875     873
     Sum        8079    8079   2257               187971   187971   27897
 
     Using Slab Decomposition
 


     bravais-lattice index     =            5
     lattice parameter (alat)  =      51.7756  a.u.
     unit-cell volume          =    2994.5794 (a.u.)^3
     number of atoms/cell      =           14
     number of atomic types    =            4
     number of electrons       =       138.00
     number of Kohn-Sham states=          240
     kinetic-energy cutoff     =      60.0000  Ry
     charge density cutoff     =     240.0000  Ry
     Exchange-correlation= SLA  PW   PBX  PBC
                           (   1   4   3   4   0   0   0)
     Noncollinear calculation with spin-orbit

     Hubbard projectors: ortho-atomic
     Hubbard parameters of DFT+U (Liechtenstein formulation) in eV:
     U(Mn1-3d) =  4.0000
     U(Mn2-3d) =  4.0000
     DFT+U on averaged j=l+1/2,l-1/2 radial WFs

     Internal variables: lda_plus_u = T, lda_plus_u_kind = 1

     celldm(1)=  51.775623  celldm(2)=   0.000000  celldm(3)=   0.000000
     celldm(4)=   0.987491  celldm(5)=   0.000000  celldm(6)=   0.000000

     crystal axes: (cart. coord. in units of alat)
               a(1) = (   0.079085  -0.045660   0.995822 )  
               a(2) = (   0.000000   0.091319   0.995822 )  
               a(3) = (  -0.079085  -0.045660   0.995822 )  

     reciprocal axes: (cart. coord. in units 2 pi/alat)
               b(1) = (  6.322314 -3.650196  0.334731 )  
               b(2) = (  0.000000  7.300392  0.334734 )  
               b(3) = ( -6.322314 -3.650196  0.334731 )  


     PseudoPot. # 1 for Mn read from file:
     ./Mn.rel-pbe-spn-kjpaw_psl.0.3.1.UPF
     MD5 check sum: dfba1c7561257014502ac20495784078
     Pseudo is Projector augmented-wave + core cor, Zval = 15.0
     Generated using &quot;atomic&quot; code by A. Dal Corso  v.6.2.2
     Shape of augmentation charge: PSQ
     Using radial grid of 1187 points, 10 beta functions with: 
                l(1) =   0
                l(2) =   0
                l(3) =   1
                l(4) =   1
                l(5) =   1
                l(6) =   1
                l(7) =   2
                l(8) =   2
                l(9) =   2
               l(10) =   2
     Q(r) pseudized with 0 coefficients 


     PseudoPot. # 2 for Mn read from file:
     ./Mn.rel-pbe-spn-kjpaw_psl.0.3.1.UPF
     MD5 check sum: dfba1c7561257014502ac20495784078
     Pseudo is Projector augmented-wave + core cor, Zval = 15.0
     Generated using &quot;atomic&quot; code by A. Dal Corso  v.6.2.2
     Shape of augmentation charge: PSQ
     Using radial grid of 1187 points, 10 beta functions with: 
                l(1) =   0
                l(2) =   0
                l(3) =   1
                l(4) =   1
                l(5) =   1
                l(6) =   1
                l(7) =   2
                l(8) =   2
                l(9) =   2
               l(10) =   2
     Q(r) pseudized with 0 coefficients 


     PseudoPot. # 3 for Bi read from file:
     ./Bi.rel-pbe-dn-kjpaw_psl.1.0.0.UPF
     MD5 check sum: 8010b987e9fb97324c8de82fb26a3f7d
     Pseudo is Projector augmented-wave + core cor, Zval = 15.0
     Generated using &quot;atomic&quot; code by A. Dal Corso  v.6.2.2
     Shape of augmentation charge: PSQ
     Using radial grid of 1283 points, 10 beta functions with: 
                l(1) =   0
                l(2) =   0
                l(3) =   1
                l(4) =   1
                l(5) =   1
                l(6) =   1
                l(7) =   2
                l(8) =   2
                l(9) =   2
               l(10) =   2
     Q(r) pseudized with 0 coefficients 


     PseudoPot. # 4 for Te read from file:
     ./Te.rel-pbe-n-kjpaw_psl.1.0.0.UPF
     MD5 check sum: 8399411061dffbb19b40ade5049f5146
     Pseudo is Projector augmented-wave + core cor, Zval =  6.0
     Generated using &quot;atomic&quot; code by A. Dal Corso  v.6.3
     Shape of augmentation charge: PSQ
     Using radial grid of 1245 points, 10 beta functions with: 
                l(1) =   0
                l(2) =   0
                l(3) =   1
                l(4) =   1
                l(5) =   1
                l(6) =   1
                l(7) =   2
                l(8) =   2
                l(9) =   2
               l(10) =   2
     Q(r) pseudized with 0 coefficients 


     atomic species   valence    mass     pseudopotential
        Mn1           15.00    54.93800     Mn( 1.00)
        Mn2           15.00    54.93800     Mn( 1.00)
        Bi            15.00   208.98000     Bi( 1.00)
        Te             6.00   127.60300     Te( 1.00)

      4 Sym. Ops., with inversion, found


                                    s                        frac. trans.

      isym =  1     identity                                     

 Time Reversal            0
 cryst.   s( 1) = (     1          0          0      )
                  (     0          1          0      )
                  (     0          0          1      )

 cart.    s( 1) = (  1.0000000  0.0000000  0.0000000 )
                  (  0.0000000  1.0000000  0.0000000 )
                  (  0.0000000  0.0000000  1.0000000 )


      isym =  2     180 deg rotation - cart. axis [1,0,0]        

 Time Reversal            1
 cryst.   s( 2) = (     0          0         -1      )
                  (     0         -1          0      )
                  (    -1          0          0      )

 cart.    s( 2) = (  1.0000000  0.0000000  0.0000000 )
                  (  0.0000000 -1.0000000 -0.0000000 )
                  (  0.0000000  0.0000000 -1.0000000 )


      isym =  3     inversion                                    

 Time Reversal            0
 cryst.   s( 3) = (    -1          0          0      )
                  (     0         -1          0      )
                  (     0          0         -1      )

 cart.    s( 3) = ( -1.0000000  0.0000000  0.0000000 )
                  (  0.0000000 -1.0000000 -0.0000000 )
                  (  0.0000000  0.0000000 -1.0000000 )


      isym =  4     inv. 180 deg rotation - cart. axis [1,0,0]   

 Time Reversal            1
 cryst.   s( 4) = (     0          0          1      )
                  (     0          1          0      )
                  (     1          0          0      )

 cart.    s( 4) = ( -1.0000000  0.0000000  0.0000000 )
                  (  0.0000000  1.0000000  0.0000000 )
                  (  0.0000000  0.0000000  1.0000000 )


     the magnetic double point group is C_2h (2/m)  [C_i (-1)   ]
     using the double point group C_i (-1)   
     there are  4 classes and  2 irreducible representations
     the character table:

       E     -E    i     -i   
                              
G_2+   1.00 -1.00  1.00 -1.00
G_2-   1.00 -1.00 -1.00  1.00

     the symmetry operations in each class and the name of the first element:

     E             1
          identity                                               
     -E           -1
          identity E                                             
     i             2
          inversion                                              
     -i           -2
          inversion E                                            

   Cartesian axes

     site n.     atom                  positions (alat units)
         1           Mn1 tau(   1) = (   0.0000000   0.0000000   0.0000000  )
         2           Mn2 tau(   2) = (   0.0000000  -0.0000005   1.4937325  )
         3           Bi  tau(   3) = (   0.0000000  -0.0000002   0.6346869  )
         4           Bi  tau(   4) = (   0.0000000  -0.0000007   2.1284194  )
         5           Bi  tau(   5) = (   0.0000000  -0.0000003   0.8590455  )
         6           Bi  tau(   6) = (   0.0000000  -0.0000008   2.3527780  )
         7           Te  tau(   7) = (   0.0000000  -0.0000001   0.1992042  )
         8           Te  tau(   8) = (   0.0000000  -0.0000006   1.6929366  )
         9           Te  tau(   9) = (   0.0000000  -0.0000004   1.2945283  )
        10           Te  tau(  10) = (   0.0000000  -0.0000009   2.7882608  )
        11           Te  tau(  11) = (   0.0000000  -0.0000001   0.4392470  )
        12           Te  tau(  12) = (   0.0000000  -0.0000006   1.9329794  )
        13           Te  tau(  13) = (   0.0000000  -0.0000004   1.0544855  )
        14           Te  tau(  14) = (   0.0000000  -0.0000009   2.5482179  )

     --------------------------------------------
     DFT-D3 Dispersion Correction (3-body terms):
     --------------------------------------------
       Reference C6 values for interpolation: 

         atom   Coordination number   C6
         Mn1        0.000          1605.50
         Mn1        1.641           479.11
         Mn1        9.885           227.69
         Mn2        0.000          1605.50
         Mn2        1.641           479.11
         Mn2        9.885           227.69
         Te         0.000           851.07
         Te         0.981           850.20
         Te         1.964           837.16
         Bi         0.000          1235.06
         Bi         0.982          1188.09
         Bi         1.966          1132.10
         Bi         2.950          1067.76

       Values used:

         atom   Coordination number  R0_AB[au]  C6      C8
         Mn1        3.848            3.351    479.11  48433.79
         Mn2        3.848            3.351    479.11  48433.79
         Bi         5.275            3.890   1067.76 147315.96
         Bi         5.275            3.890   1067.76 147315.96
         Bi         5.275            3.890   1067.76 147315.96
         Bi         5.275            3.890   1067.76 147315.96
         Te         3.328            3.676    837.16  84978.06
         Te         3.328            3.676    837.16  84978.06
         Te         3.328            3.676    837.16  84978.06
         Te         3.328            3.676    837.16  84978.06
         Te         4.238            3.676    837.16  84978.05
         Te         4.238            3.676    837.16  84978.05
         Te         4.238            3.676    837.16  84978.05
         Te         4.238            3.676    837.16  84978.05

         Molecular C6 ( Ry / a.u.^6 ) =    164642.77


   Crystallographic axes

     site n.     atom                  positions (cryst. coord.)
         1           Mn1 tau(   1) = (  0.0000000  0.0000000  0.0000000  )
         2           Mn2 tau(   2) = (  0.5000000  0.5000000  0.5000000  )
         3           Bi  tau(   3) = (  0.2124500  0.2124500  0.2124500  )
         4           Bi  tau(   4) = (  0.7124500  0.7124500  0.7124500  )
         5           Bi  tau(   5) = (  0.2875500  0.2875500  0.2875500  )
         6           Bi  tau(   6) = (  0.7875500  0.7875500  0.7875500  )
         7           Te  tau(   7) = (  0.0666800  0.0666800  0.0666800  )
         8           Te  tau(   8) = (  0.5666800  0.5666800  0.5666800  )
         9           Te  tau(   9) = (  0.4333200  0.4333200  0.4333200  )
        10           Te  tau(  10) = (  0.9333200  0.9333200  0.9333200  )
        11           Te  tau(  11) = (  0.1470300  0.1470300  0.1470300  )
        12           Te  tau(  12) = (  0.6470300  0.6470300  0.6470300  )
        13           Te  tau(  13) = (  0.3529700  0.3529700  0.3529700  )
        14           Te  tau(  14) = (  0.8529700  0.8529700  0.8529700  )

     number of k points=   251  Marzari-Vanderbilt smearing, width (Ry)=  0.0200
                       cart. coord. in units 2pi/alat
        k(    1) = (   0.0000000   0.0000000   0.0000000), wk =   0.0039841
        k(    2) = (   0.0000000   0.0000000   0.0100420), wk =   0.0039841
        k(    3) = (   0.0000000   0.0000000   0.0200839), wk =   0.0039841
        k(    4) = (   0.0000000   0.0000000   0.0301259), wk =   0.0039841
        k(    5) = (   0.0000000   0.0000000   0.0401678), wk =   0.0039841
        k(    6) = (   0.0000000   0.0000000   0.0502098), wk =   0.0039841
        k(    7) = (   0.0000000   0.0000000   0.0602518), wk =   0.0039841
        k(    8) = (   0.0000000   0.0000000   0.0702937), wk =   0.0039841
        k(    9) = (   0.0000000   0.0000000   0.0803357), wk =   0.0039841
        k(   10) = (   0.0000000   0.0000000   0.0903776), wk =   0.0039841
        k(   11) = (   0.0000000   0.0000000   0.1004196), wk =   0.0039841
        k(   12) = (   0.0000000   0.0000000   0.1104615), wk =   0.0039841
        k(   13) = (   0.0000000   0.0000000   0.1205035), wk =   0.0039841
        k(   14) = (   0.0000000   0.0000000   0.1305455), wk =   0.0039841
        k(   15) = (   0.0000000   0.0000000   0.1405874), wk =   0.0039841
        k(   16) = (   0.0000000   0.0000000   0.1506294), wk =   0.0039841
        k(   17) = (   0.0000000   0.0000000   0.1606713), wk =   0.0039841
        k(   18) = (   0.0000000   0.0000000   0.1707133), wk =   0.0039841
        k(   19) = (   0.0000000   0.0000000   0.1807553), wk =   0.0039841
        k(   20) = (   0.0000000   0.0000000   0.1907972), wk =   0.0039841
        k(   21) = (   0.0000000   0.0000000   0.2008392), wk =   0.0039841
        k(   22) = (   0.0000000   0.0000000   0.2108811), wk =   0.0039841
        k(   23) = (   0.0000000   0.0000000   0.2209231), wk =   0.0039841
        k(   24) = (   0.0000000   0.0000000   0.2309651), wk =   0.0039841
        k(   25) = (   0.0000000   0.0000000   0.2410070), wk =   0.0039841
        k(   26) = (   0.0000000   0.0000000   0.2510490), wk =   0.0039841
        k(   27) = (   0.0000000   0.0000000   0.2610909), wk =   0.0039841
        k(   28) = (   0.0000000   0.0000000   0.2711329), wk =   0.0039841
        k(   29) = (   0.0000000   0.0000000   0.2811749), wk =   0.0039841
        k(   30) = (   0.0000000   0.0000000   0.2912168), wk =   0.0039841
        k(   31) = (   0.0000000   0.0000000   0.3012588), wk =   0.0039841
        k(   32) = (   0.0000000   0.0000000   0.3113007), wk =   0.0039841
        k(   33) = (   0.0000000   0.0000000   0.3213427), wk =   0.0039841
        k(   34) = (   0.0000000   0.0000000   0.3313846), wk =   0.0039841
        k(   35) = (   0.0000000   0.0000000   0.3414266), wk =   0.0039841
        k(   36) = (   0.0000000   0.0000000   0.3514686), wk =   0.0039841
        k(   37) = (   0.0000000   0.0000000   0.3615105), wk =   0.0039841
        k(   38) = (   0.0000000   0.0000000   0.3715525), wk =   0.0039841
        k(   39) = (   0.0000000   0.0000000   0.3815944), wk =   0.0039841
        k(   40) = (   0.0000000   0.0000000   0.3916364), wk =   0.0039841
        k(   41) = (   0.0000000   0.0000000   0.4016784), wk =   0.0039841
        k(   42) = (   0.0000000   0.0000000   0.4117203), wk =   0.0039841
        k(   43) = (   0.0000000   0.0000000   0.4217623), wk =   0.0039841
        k(   44) = (   0.0000000   0.0000000   0.4318042), wk =   0.0039841
        k(   45) = (   0.0000000   0.0000000   0.4418462), wk =   0.0039841
        k(   46) = (   0.0000000   0.0000000   0.4518882), wk =   0.0039841
        k(   47) = (   0.0000000   0.0000000   0.4619301), wk =   0.0039841
        k(   48) = (   0.0000000   0.0000000   0.4719721), wk =   0.0039841
        k(   49) = (   0.0000000   0.0000000   0.4820140), wk =   0.0039841
        k(   50) = (   0.0000000   0.0000000   0.4920560), wk =   0.0039841
        k(   51) = (   0.0000000   0.0000000   0.5020979), wk =   0.0039841
        k(   52) = (   0.0000000  -0.0717761   0.5020979), wk =   0.0039841
        k(   53) = (   0.0000000  -0.1435522   0.5020979), wk =   0.0039841
        k(   54) = (   0.0000000  -0.2153283   0.5020979), wk =   0.0039841
        k(   55) = (   0.0000000  -0.2871044   0.5020979), wk =   0.0039841
        k(   56) = (   0.0000000  -0.3588805   0.5020978), wk =   0.0039841
        k(   57) = (   0.0000000  -0.4306566   0.5020978), wk =   0.0039841
        k(   58) = (   0.0000000  -0.5024326   0.5020978), wk =   0.0039841
        k(   59) = (   0.0000000  -0.5742087   0.5020978), wk =   0.0039841
        k(   60) = (   0.0000000  -0.6459848   0.5020977), wk =   0.0039841
        k(   61) = (   0.0000000  -0.7177609   0.5020977), wk =   0.0039841
        k(   62) = (   0.0000000  -0.7895370   0.5020977), wk =   0.0039841
        k(   63) = (   0.0000000  -0.8613131   0.5020977), wk =   0.0039841
        k(   64) = (   0.0000000  -0.9330892   0.5020976), wk =   0.0039841
        k(   65) = (   0.0000000  -1.0048653   0.5020976), wk =   0.0039841
        k(   66) = (   0.0000000  -1.0766414   0.5020976), wk =   0.0039841
        k(   67) = (   0.0000000  -1.1484175   0.5020976), wk =   0.0039841
        k(   68) = (   0.0000000  -1.2201936   0.5020975), wk =   0.0039841
        k(   69) = (   0.0000000  -1.2919697   0.5020975), wk =   0.0039841
        k(   70) = (   0.0000000  -1.3637458   0.5020975), wk =   0.0039841
        k(   71) = (   0.0000000  -1.4355219   0.5020975), wk =   0.0039841
        k(   72) = (   0.0000000  -1.5072979   0.5020974), wk =   0.0039841
        k(   73) = (   0.0000000  -1.5790740   0.5020974), wk =   0.0039841
        k(   74) = (   0.0000000  -1.6508501   0.5020974), wk =   0.0039841
        k(   75) = (   0.0000000  -1.7226262   0.5020974), wk =   0.0039841
        k(   76) = (   0.0000000  -1.7944023   0.5020973), wk =   0.0039841
        k(   77) = (   0.0000000  -1.8661784   0.5020973), wk =   0.0039841
        k(   78) = (   0.0000000  -1.9379545   0.5020973), wk =   0.0039841
        k(   79) = (   0.0000000  -2.0097306   0.5020973), wk =   0.0039841
        k(   80) = (   0.0000000  -2.0815067   0.5020973), wk =   0.0039841
        k(   81) = (   0.0000000  -2.1532828   0.5020972), wk =   0.0039841
        k(   82) = (   0.0000000  -2.2250589   0.5020972), wk =   0.0039841
        k(   83) = (   0.0000000  -2.2968350   0.5020972), wk =   0.0039841
        k(   84) = (   0.0000000  -2.3686111   0.5020972), wk =   0.0039841
        k(   85) = (   0.0000000  -2.4403872   0.5020971), wk =   0.0039841
        k(   86) = (   0.0000000  -2.5121632   0.5020971), wk =   0.0039841
        k(   87) = (   0.0000000  -2.5839393   0.5020971), wk =   0.0039841
        k(   88) = (   0.0000000  -2.6557154   0.5020971), wk =   0.0039841
        k(   89) = (   0.0000000  -2.7274915   0.5020970), wk =   0.0039841
        k(   90) = (   0.0000000  -2.7992676   0.5020970), wk =   0.0039841
        k(   91) = (   0.0000000  -2.8710437   0.5020970), wk =   0.0039841
        k(   92) = (   0.0000000  -2.9428198   0.5020970), wk =   0.0039841
        k(   93) = (   0.0000000  -3.0145959   0.5020969), wk =   0.0039841
        k(   94) = (   0.0000000  -3.0863720   0.5020969), wk =   0.0039841
        k(   95) = (   0.0000000  -3.1581481   0.5020969), wk =   0.0039841
        k(   96) = (   0.0000000  -3.2299242   0.5020969), wk =   0.0039841
        k(   97) = (   0.0000000  -3.3017003   0.5020968), wk =   0.0039841
        k(   98) = (   0.0000000  -3.3734764   0.5020968), wk =   0.0039841
        k(   99) = (   0.0000000  -3.4452524   0.5020968), wk =   0.0039841
        k(  100) = (   0.0000000  -3.5170285   0.5020968), wk =   0.0039841
        k(  101) = (   0.0000000  -3.5888046   0.5020967), wk =   0.0039841
        k(  102) = (   0.0000000  -3.5900325   0.4987494), wk =   0.0039841
        k(  103) = (   0.0000000  -3.5912603   0.4954021), wk =   0.0039841
        k(  104) = (   0.0000000  -3.5924881   0.4920548), wk =   0.0039841
        k(  105) = (   0.0000000  -3.5937159   0.4887075), wk =   0.0039841
        k(  106) = (   0.0000000  -3.5949438   0.4853601), wk =   0.0039841
        k(  107) = (   0.0000000  -3.5961716   0.4820128), wk =   0.0039841
        k(  108) = (   0.0000000  -3.5973994   0.4786655), wk =   0.0039841
        k(  109) = (   0.0000000  -3.5986272   0.4753182), wk =   0.0039841
        k(  110) = (   0.0000000  -3.5998551   0.4719709), wk =   0.0039841
        k(  111) = (   0.0000000  -3.6010829   0.4686235), wk =   0.0039841
        k(  112) = (   0.0000000  -3.6023107   0.4652762), wk =   0.0039841
        k(  113) = (   0.0000000  -3.6035385   0.4619289), wk =   0.0039841
        k(  114) = (   0.0000000  -3.6047664   0.4585816), wk =   0.0039841
        k(  115) = (   0.0000000  -3.6059942   0.4552343), wk =   0.0039841
        k(  116) = (   0.0000000  -3.6072220   0.4518869), wk =   0.0039841
        k(  117) = (   0.0000000  -3.6084498   0.4485396), wk =   0.0039841
        k(  118) = (   0.0000000  -3.6096777   0.4451923), wk =   0.0039841
        k(  119) = (   0.0000000  -3.6109055   0.4418450), wk =   0.0039841
        k(  120) = (   0.0000000  -3.6121333   0.4384977), wk =   0.0039841
        k(  121) = (   0.0000000  -3.6133611   0.4351503), wk =   0.0039841
        k(  122) = (   0.0000000  -3.6145890   0.4318030), wk =   0.0039841
        k(  123) = (   0.0000000  -3.6158168   0.4284557), wk =   0.0039841
        k(  124) = (   0.0000000  -3.6170446   0.4251084), wk =   0.0039841
        k(  125) = (   0.0000000  -3.6182724   0.4217611), wk =   0.0039841
        k(  126) = (   0.0000000  -3.6195003   0.4184137), wk =   0.0039841
        k(  127) = (   0.0000000  -3.6207281   0.4150664), wk =   0.0039841
        k(  128) = (   0.0000000  -3.6219559   0.4117191), wk =   0.0039841
        k(  129) = (   0.0000000  -3.6231837   0.4083718), wk =   0.0039841
        k(  130) = (   0.0000000  -3.6244116   0.4050245), wk =   0.0039841
        k(  131) = (   0.0000000  -3.6256394   0.4016771), wk =   0.0039841
        k(  132) = (   0.0000000  -3.6268672   0.3983298), wk =   0.0039841
        k(  133) = (   0.0000000  -3.6280950   0.3949825), wk =   0.0039841
        k(  134) = (   0.0000000  -3.6293229   0.3916352), wk =   0.0039841
        k(  135) = (   0.0000000  -3.6305507   0.3882879), wk =   0.0039841
        k(  136) = (   0.0000000  -3.6317785   0.3849405), wk =   0.0039841
        k(  137) = (   0.0000000  -3.6330063   0.3815932), wk =   0.0039841
        k(  138) = (   0.0000000  -3.6342342   0.3782459), wk =   0.0039841
        k(  139) = (   0.0000000  -3.6354620   0.3748986), wk =   0.0039841
        k(  140) = (   0.0000000  -3.6366898   0.3715513), wk =   0.0039841
        k(  141) = (   0.0000000  -3.6379176   0.3682039), wk =   0.0039841
        k(  142) = (   0.0000000  -3.6391455   0.3648566), wk =   0.0039841
        k(  143) = (   0.0000000  -3.6403733   0.3615093), wk =   0.0039841
        k(  144) = (   0.0000000  -3.6416011   0.3581620), wk =   0.0039841
        k(  145) = (   0.0000000  -3.6428289   0.3548147), wk =   0.0039841
        k(  146) = (   0.0000000  -3.6440568   0.3514673), wk =   0.0039841
        k(  147) = (   0.0000000  -3.6452846   0.3481200), wk =   0.0039841
        k(  148) = (   0.0000000  -3.6465124   0.3447727), wk =   0.0039841
        k(  149) = (   0.0000000  -3.6477402   0.3414254), wk =   0.0039841
        k(  150) = (   0.0000000  -3.6489681   0.3380781), wk =   0.0039841
        k(  151) = (   0.0000000  -3.6501959   0.3347307), wk =   0.0039841
        k(  152) = (   0.0000000  -3.5771920   0.3280361), wk =   0.0039841
        k(  153) = (   0.0000000  -3.5041880   0.3213415), wk =   0.0039841
        k(  154) = (   0.0000000  -3.4311841   0.3146469), wk =   0.0039841
        k(  155) = (   0.0000000  -3.3581802   0.3079523), wk =   0.0039841
        k(  156) = (   0.0000000  -3.2851763   0.3012577), wk =   0.0039841
        k(  157) = (   0.0000000  -3.2121724   0.2945631), wk =   0.0039841
        k(  158) = (   0.0000000  -3.1391685   0.2878684), wk =   0.0039841
        k(  159) = (   0.0000000  -3.0661645   0.2811738), wk =   0.0039841
        k(  160) = (   0.0000000  -2.9931606   0.2744792), wk =   0.0039841
        k(  161) = (   0.0000000  -2.9201567   0.2677846), wk =   0.0039841
        k(  162) = (   0.0000000  -2.8471528   0.2610900), wk =   0.0039841
        k(  163) = (   0.0000000  -2.7741489   0.2543954), wk =   0.0039841
        k(  164) = (   0.0000000  -2.7011450   0.2477007), wk =   0.0039841
        k(  165) = (   0.0000000  -2.6281410   0.2410061), wk =   0.0039841
        k(  166) = (   0.0000000  -2.5551371   0.2343115), wk =   0.0039841
        k(  167) = (   0.0000000  -2.4821332   0.2276169), wk =   0.0039841
        k(  168) = (   0.0000000  -2.4091293   0.2209223), wk =   0.0039841
        k(  169) = (   0.0000000  -2.3361254   0.2142277), wk =   0.0039841
        k(  170) = (   0.0000000  -2.2631214   0.2075331), wk =   0.0039841
        k(  171) = (   0.0000000  -2.1901175   0.2008384), wk =   0.0039841
        k(  172) = (   0.0000000  -2.1171136   0.1941438), wk =   0.0039841
        k(  173) = (   0.0000000  -2.0441097   0.1874492), wk =   0.0039841
        k(  174) = (   0.0000000  -1.9711058   0.1807546), wk =   0.0039841
        k(  175) = (   0.0000000  -1.8981019   0.1740600), wk =   0.0039841
        k(  176) = (   0.0000000  -1.8250979   0.1673654), wk =   0.0039841
        k(  177) = (   0.0000000  -1.7520940   0.1606708), wk =   0.0039841
        k(  178) = (   0.0000000  -1.6790901   0.1539761), wk =   0.0039841
        k(  179) = (   0.0000000  -1.6060862   0.1472815), wk =   0.0039841
        k(  180) = (   0.0000000  -1.5330823   0.1405869), wk =   0.0039841
        k(  181) = (   0.0000000  -1.4600784   0.1338923), wk =   0.0039841
        k(  182) = (   0.0000000  -1.3870744   0.1271977), wk =   0.0039841
        k(  183) = (   0.0000000  -1.3140705   0.1205031), wk =   0.0039841
        k(  184) = (   0.0000000  -1.2410666   0.1138085), wk =   0.0039841
        k(  185) = (   0.0000000  -1.1680627   0.1071138), wk =   0.0039841
        k(  186) = (   0.0000000  -1.0950588   0.1004192), wk =   0.0039841
        k(  187) = (   0.0000000  -1.0220548   0.0937246), wk =   0.0039841
        k(  188) = (   0.0000000  -0.9490509   0.0870300), wk =   0.0039841
        k(  189) = (   0.0000000  -0.8760470   0.0803354), wk =   0.0039841
        k(  190) = (   0.0000000  -0.8030431   0.0736408), wk =   0.0039841
        k(  191) = (   0.0000000  -0.7300392   0.0669461), wk =   0.0039841
        k(  192) = (   0.0000000  -0.6570353   0.0602515), wk =   0.0039841
        k(  193) = (   0.0000000  -0.5840313   0.0535569), wk =   0.0039841
        k(  194) = (   0.0000000  -0.5110274   0.0468623), wk =   0.0039841
        k(  195) = (   0.0000000  -0.4380235   0.0401677), wk =   0.0039841
        k(  196) = (   0.0000000  -0.3650196   0.0334731), wk =   0.0039841
        k(  197) = (   0.0000000  -0.2920157   0.0267785), wk =   0.0039841
        k(  198) = (   0.0000000  -0.2190118   0.0200838), wk =   0.0039841
        k(  199) = (   0.0000000  -0.1460078   0.0133892), wk =   0.0039841
        k(  200) = (   0.0000000  -0.0730039   0.0066946), wk =   0.0039841
        k(  201) = (   0.0000000   0.0000000   0.0000000), wk =   0.0039841
        k(  202) = (   0.0632231  -0.0365020   0.0033473), wk =   0.0039841
        k(  203) = (   0.1264463  -0.0730039   0.0066946), wk =   0.0039841
        k(  204) = (   0.1896694  -0.1095059   0.0100419), wk =   0.0039841
        k(  205) = (   0.2528925  -0.1460078   0.0133892), wk =   0.0039841
        k(  206) = (   0.3161157  -0.1825098   0.0167365), wk =   0.0039841
        k(  207) = (   0.3793388  -0.2190118   0.0200838), wk =   0.0039841
        k(  208) = (   0.4425620  -0.2555137   0.0234312), wk =   0.0039841
        k(  209) = (   0.5057851  -0.2920157   0.0267785), wk =   0.0039841
        k(  210) = (   0.5690082  -0.3285176   0.0301258), wk =   0.0039841
        k(  211) = (   0.6322314  -0.3650196   0.0334731), wk =   0.0039841
        k(  212) = (   0.6954545  -0.4015215   0.0368204), wk =   0.0039841
        k(  213) = (   0.7586776  -0.4380235   0.0401677), wk =   0.0039841
        k(  214) = (   0.8219008  -0.4745255   0.0435150), wk =   0.0039841
        k(  215) = (   0.8851239  -0.5110274   0.0468623), wk =   0.0039841
        k(  216) = (   0.9483471  -0.5475294   0.0502096), wk =   0.0039841
        k(  217) = (   1.0115702  -0.5840313   0.0535569), wk =   0.0039841
        k(  218) = (   1.0747933  -0.6205333   0.0569042), wk =   0.0039841
        k(  219) = (   1.1380165  -0.6570353   0.0602515), wk =   0.0039841
        k(  220) = (   1.2012396  -0.6935372   0.0635988), wk =   0.0039841
        k(  221) = (   1.2644627  -0.7300392   0.0669461), wk =   0.0039841
        k(  222) = (   1.3276859  -0.7665411   0.0702935), wk =   0.0039841
        k(  223) = (   1.3909090  -0.8030431   0.0736408), wk =   0.0039841
        k(  224) = (   1.4541322  -0.8395451   0.0769881), wk =   0.0039841
        k(  225) = (   1.5173553  -0.8760470   0.0803354), wk =   0.0039841
        k(  226) = (   1.5805784  -0.9125490   0.0836827), wk =   0.0039841
        k(  227) = (   1.6438016  -0.9490509   0.0870300), wk =   0.0039841
        k(  228) = (   1.7070247  -0.9855529   0.0903773), wk =   0.0039841
        k(  229) = (   1.7702478  -1.0220548   0.0937246), wk =   0.0039841
        k(  230) = (   1.8334710  -1.0585568   0.0970719), wk =   0.0039841
        k(  231) = (   1.8966941  -1.0950588   0.1004192), wk =   0.0039841
        k(  232) = (   1.9599173  -1.1315607   0.1037665), wk =   0.0039841
        k(  233) = (   2.0231404  -1.1680627   0.1071138), wk =   0.0039841
        k(  234) = (   2.0863635  -1.2045646   0.1104611), wk =   0.0039841
        k(  235) = (   2.1495867  -1.2410666   0.1138085), wk =   0.0039841
        k(  236) = (   2.2128098  -1.2775686   0.1171558), wk =   0.0039841
        k(  237) = (   2.2760329  -1.3140705   0.1205031), wk =   0.0039841
        k(  238) = (   2.3392561  -1.3505725   0.1238504), wk =   0.0039841
        k(  239) = (   2.4024792  -1.3870744   0.1271977), wk =   0.0039841
        k(  240) = (   2.4657024  -1.4235764   0.1305450), wk =   0.0039841
        k(  241) = (   2.5289255  -1.4600784   0.1338923), wk =   0.0039841
        k(  242) = (   2.5921486  -1.4965803   0.1372396), wk =   0.0039841
        k(  243) = (   2.6553718  -1.5330823   0.1405869), wk =   0.0039841
        k(  244) = (   2.7185949  -1.5695842   0.1439342), wk =   0.0039841
        k(  245) = (   2.7818180  -1.6060862   0.1472815), wk =   0.0039841
        k(  246) = (   2.8450412  -1.6425881   0.1506288), wk =   0.0039841
        k(  247) = (   2.9082643  -1.6790901   0.1539761), wk =   0.0039841
        k(  248) = (   2.9714875  -1.7155921   0.1573234), wk =   0.0039841
        k(  249) = (   3.0347106  -1.7520940   0.1606708), wk =   0.0039841
        k(  250) = (   3.0979337  -1.7885960   0.1640181), wk =   0.0039841
        k(  251) = (   3.1611569  -1.8250979   0.1673654), wk =   0.0039841

                       cryst. coord.
        k(    1) = (   0.0000000   0.0000000   0.0000000), wk =   0.0039841
        k(    2) = (   0.0100000   0.0100000   0.0100000), wk =   0.0039841
        k(    3) = (   0.0200000   0.0200000   0.0200000), wk =   0.0039841
        k(    4) = (   0.0300000   0.0300000   0.0300000), wk =   0.0039841
        k(    5) = (   0.0400000   0.0400000   0.0400000), wk =   0.0039841
        k(    6) = (   0.0500000   0.0500000   0.0500000), wk =   0.0039841
        k(    7) = (   0.0600000   0.0600000   0.0600000), wk =   0.0039841
        k(    8) = (   0.0700000   0.0700000   0.0700000), wk =   0.0039841
        k(    9) = (   0.0800000   0.0800000   0.0800000), wk =   0.0039841
        k(   10) = (   0.0900000   0.0900000   0.0900000), wk =   0.0039841
        k(   11) = (   0.1000000   0.1000000   0.1000000), wk =   0.0039841
        k(   12) = (   0.1100000   0.1100000   0.1100000), wk =   0.0039841
        k(   13) = (   0.1200000   0.1200000   0.1200000), wk =   0.0039841
        k(   14) = (   0.1300000   0.1300000   0.1300000), wk =   0.0039841
        k(   15) = (   0.1400000   0.1400000   0.1400000), wk =   0.0039841
        k(   16) = (   0.1500000   0.1500000   0.1500000), wk =   0.0039841
        k(   17) = (   0.1600000   0.1600000   0.1600000), wk =   0.0039841
        k(   18) = (   0.1700000   0.1700000   0.1700000), wk =   0.0039841
        k(   19) = (   0.1800000   0.1800000   0.1800000), wk =   0.0039841
        k(   20) = (   0.1900000   0.1900000   0.1900000), wk =   0.0039841
        k(   21) = (   0.2000000   0.2000000   0.2000000), wk =   0.0039841
        k(   22) = (   0.2100000   0.2100000   0.2100000), wk =   0.0039841
        k(   23) = (   0.2200000   0.2200000   0.2200000), wk =   0.0039841
        k(   24) = (   0.2300000   0.2300000   0.2300000), wk =   0.0039841
        k(   25) = (   0.2400000   0.2400000   0.2400000), wk =   0.0039841
        k(   26) = (   0.2500000   0.2500000   0.2500000), wk =   0.0039841
        k(   27) = (   0.2600000   0.2600000   0.2600000), wk =   0.0039841
        k(   28) = (   0.2700000   0.2700000   0.2700000), wk =   0.0039841
        k(   29) = (   0.2800000   0.2800000   0.2800000), wk =   0.0039841
        k(   30) = (   0.2900000   0.2900000   0.2900000), wk =   0.0039841
        k(   31) = (   0.3000000   0.3000000   0.3000000), wk =   0.0039841
        k(   32) = (   0.3100000   0.3100000   0.3100000), wk =   0.0039841
        k(   33) = (   0.3200000   0.3200000   0.3200000), wk =   0.0039841
        k(   34) = (   0.3300000   0.3300000   0.3300000), wk =   0.0039841
        k(   35) = (   0.3400000   0.3400000   0.3400000), wk =   0.0039841
        k(   36) = (   0.3500000   0.3500000   0.3500000), wk =   0.0039841
        k(   37) = (   0.3600000   0.3600000   0.3600000), wk =   0.0039841
        k(   38) = (   0.3700000   0.3700000   0.3700000), wk =   0.0039841
        k(   39) = (   0.3800000   0.3800000   0.3800000), wk =   0.0039841
        k(   40) = (   0.3900000   0.3900000   0.3900000), wk =   0.0039841
        k(   41) = (   0.4000000   0.4000000   0.4000000), wk =   0.0039841
        k(   42) = (   0.4100000   0.4100000   0.4100000), wk =   0.0039841
        k(   43) = (   0.4200000   0.4200000   0.4200000), wk =   0.0039841
        k(   44) = (   0.4300000   0.4300000   0.4300000), wk =   0.0039841
        k(   45) = (   0.4400000   0.4400000   0.4400000), wk =   0.0039841
        k(   46) = (   0.4500000   0.4500000   0.4500000), wk =   0.0039841
        k(   47) = (   0.4600000   0.4600000   0.4600000), wk =   0.0039841
        k(   48) = (   0.4700000   0.4700000   0.4700000), wk =   0.0039841
        k(   49) = (   0.4800000   0.4800000   0.4800000), wk =   0.0039841
        k(   50) = (   0.4900000   0.4900000   0.4900000), wk =   0.0039841
        k(   51) = (   0.5000000   0.5000000   0.5000000), wk =   0.0039841
        k(   52) = (   0.5032773   0.4934455   0.5032773), wk =   0.0039841
        k(   53) = (   0.5065545   0.4868909   0.5065545), wk =   0.0039841
        k(   54) = (   0.5098318   0.4803364   0.5098318), wk =   0.0039841
        k(   55) = (   0.5131091   0.4737818   0.5131091), wk =   0.0039841
        k(   56) = (   0.5163864   0.4672273   0.5163864), wk =   0.0039841
        k(   57) = (   0.5196636   0.4606727   0.5196636), wk =   0.0039841
        k(   58) = (   0.5229409   0.4541182   0.5229409), wk =   0.0039841
        k(   59) = (   0.5262182   0.4475637   0.5262182), wk =   0.0039841
        k(   60) = (   0.5294954   0.4410091   0.5294954), wk =   0.0039841
        k(   61) = (   0.5327727   0.4344546   0.5327727), wk =   0.0039841
        k(   62) = (   0.5360500   0.4279000   0.5360500), wk =   0.0039841
        k(   63) = (   0.5393273   0.4213455   0.5393273), wk =   0.0039841
        k(   64) = (   0.5426045   0.4147909   0.5426045), wk =   0.0039841
        k(   65) = (   0.5458818   0.4082364   0.5458818), wk =   0.0039841
        k(   66) = (   0.5491591   0.4016819   0.5491591), wk =   0.0039841
        k(   67) = (   0.5524363   0.3951273   0.5524363), wk =   0.0039841
        k(   68) = (   0.5557136   0.3885728   0.5557136), wk =   0.0039841
        k(   69) = (   0.5589909   0.3820182   0.5589909), wk =   0.0039841
        k(   70) = (   0.5622682   0.3754637   0.5622682), wk =   0.0039841
        k(   71) = (   0.5655454   0.3689091   0.5655454), wk =   0.0039841
        k(   72) = (   0.5688227   0.3623546   0.5688227), wk =   0.0039841
        k(   73) = (   0.5721000   0.3558001   0.5721000), wk =   0.0039841
        k(   74) = (   0.5753772   0.3492455   0.5753772), wk =   0.0039841
        k(   75) = (   0.5786545   0.3426910   0.5786545), wk =   0.0039841
        k(   76) = (   0.5819318   0.3361364   0.5819318), wk =   0.0039841
        k(   77) = (   0.5852091   0.3295819   0.5852091), wk =   0.0039841
        k(   78) = (   0.5884863   0.3230274   0.5884863), wk =   0.0039841
        k(   79) = (   0.5917636   0.3164728   0.5917636), wk =   0.0039841
        k(   80) = (   0.5950409   0.3099183   0.5950409), wk =   0.0039841
        k(   81) = (   0.5983181   0.3033637   0.5983181), wk =   0.0039841
        k(   82) = (   0.6015954   0.2968092   0.6015954), wk =   0.0039841
        k(   83) = (   0.6048727   0.2902546   0.6048727), wk =   0.0039841
        k(   84) = (   0.6081500   0.2837001   0.6081500), wk =   0.0039841
        k(   85) = (   0.6114272   0.2771456   0.6114272), wk =   0.0039841
        k(   86) = (   0.6147045   0.2705910   0.6147045), wk =   0.0039841
        k(   87) = (   0.6179818   0.2640365   0.6179818), wk =   0.0039841
        k(   88) = (   0.6212590   0.2574819   0.6212590), wk =   0.0039841
        k(   89) = (   0.6245363   0.2509274   0.6245363), wk =   0.0039841
        k(   90) = (   0.6278136   0.2443728   0.6278136), wk =   0.0039841
        k(   91) = (   0.6310909   0.2378183   0.6310909), wk =   0.0039841
        k(   92) = (   0.6343681   0.2312638   0.6343681), wk =   0.0039841
        k(   93) = (   0.6376454   0.2247092   0.6376454), wk =   0.0039841
        k(   94) = (   0.6409227   0.2181547   0.6409227), wk =   0.0039841
        k(   95) = (   0.6441999   0.2116001   0.6441999), wk =   0.0039841
        k(   96) = (   0.6474772   0.2050456   0.6474772), wk =   0.0039841
        k(   97) = (   0.6507545   0.1984910   0.6507545), wk =   0.0039841
        k(   98) = (   0.6540317   0.1919365   0.6540317), wk =   0.0039841
        k(   99) = (   0.6573090   0.1853820   0.6573090), wk =   0.0039841
        k(  100) = (   0.6605863   0.1788274   0.6605863), wk =   0.0039841
        k(  101) = (   0.6638636   0.1722729   0.6638636), wk =   0.0039841
        k(  102) = (   0.6605863   0.1688274   0.6605863), wk =   0.0039841
        k(  103) = (   0.6573090   0.1653820   0.6573090), wk =   0.0039841
        k(  104) = (   0.6540317   0.1619365   0.6540317), wk =   0.0039841
        k(  105) = (   0.6507545   0.1584910   0.6507545), wk =   0.0039841
        k(  106) = (   0.6474772   0.1550456   0.6474772), wk =   0.0039841
        k(  107) = (   0.6441999   0.1516001   0.6441999), wk =   0.0039841
        k(  108) = (   0.6409227   0.1481547   0.6409227), wk =   0.0039841
        k(  109) = (   0.6376454   0.1447092   0.6376454), wk =   0.0039841
        k(  110) = (   0.6343681   0.1412638   0.6343681), wk =   0.0039841
        k(  111) = (   0.6310909   0.1378183   0.6310909), wk =   0.0039841
        k(  112) = (   0.6278136   0.1343728   0.6278136), wk =   0.0039841
        k(  113) = (   0.6245363   0.1309274   0.6245363), wk =   0.0039841
        k(  114) = (   0.6212590   0.1274819   0.6212590), wk =   0.0039841
        k(  115) = (   0.6179818   0.1240365   0.6179818), wk =   0.0039841
        k(  116) = (   0.6147045   0.1205910   0.6147045), wk =   0.0039841
        k(  117) = (   0.6114272   0.1171456   0.6114272), wk =   0.0039841
        k(  118) = (   0.6081500   0.1137001   0.6081500), wk =   0.0039841
        k(  119) = (   0.6048727   0.1102546   0.6048727), wk =   0.0039841
        k(  120) = (   0.6015954   0.1068092   0.6015954), wk =   0.0039841
        k(  121) = (   0.5983181   0.1033637   0.5983181), wk =   0.0039841
        k(  122) = (   0.5950409   0.0999183   0.5950409), wk =   0.0039841
        k(  123) = (   0.5917636   0.0964728   0.5917636), wk =   0.0039841
        k(  124) = (   0.5884863   0.0930274   0.5884863), wk =   0.0039841
        k(  125) = (   0.5852091   0.0895819   0.5852091), wk =   0.0039841
        k(  126) = (   0.5819318   0.0861364   0.5819318), wk =   0.0039841
        k(  127) = (   0.5786545   0.0826910   0.5786545), wk =   0.0039841
        k(  128) = (   0.5753772   0.0792455   0.5753772), wk =   0.0039841
        k(  129) = (   0.5721000   0.0758001   0.5721000), wk =   0.0039841
        k(  130) = (   0.5688227   0.0723546   0.5688227), wk =   0.0039841
        k(  131) = (   0.5655454   0.0689091   0.5655454), wk =   0.0039841
        k(  132) = (   0.5622682   0.0654637   0.5622682), wk =   0.0039841
        k(  133) = (   0.5589909   0.0620182   0.5589909), wk =   0.0039841
        k(  134) = (   0.5557136   0.0585728   0.5557136), wk =   0.0039841
        k(  135) = (   0.5524363   0.0551273   0.5524363), wk =   0.0039841
        k(  136) = (   0.5491591   0.0516819   0.5491591), wk =   0.0039841
        k(  137) = (   0.5458818   0.0482364   0.5458818), wk =   0.0039841
        k(  138) = (   0.5426045   0.0447909   0.5426045), wk =   0.0039841
        k(  139) = (   0.5393273   0.0413455   0.5393273), wk =   0.0039841
        k(  140) = (   0.5360500   0.0379000   0.5360500), wk =   0.0039841
        k(  141) = (   0.5327727   0.0344546   0.5327727), wk =   0.0039841
        k(  142) = (   0.5294954   0.0310091   0.5294954), wk =   0.0039841
        k(  143) = (   0.5262182   0.0275637   0.5262182), wk =   0.0039841
        k(  144) = (   0.5229409   0.0241182   0.5229409), wk =   0.0039841
        k(  145) = (   0.5196636   0.0206727   0.5196636), wk =   0.0039841
        k(  146) = (   0.5163864   0.0172273   0.5163864), wk =   0.0039841
        k(  147) = (   0.5131091   0.0137818   0.5131091), wk =   0.0039841
        k(  148) = (   0.5098318   0.0103364   0.5098318), wk =   0.0039841
        k(  149) = (   0.5065545   0.0068909   0.5065545), wk =   0.0039841
        k(  150) = (   0.5032773   0.0034455   0.5032773), wk =   0.0039841
        k(  151) = (   0.5000000   0.0000000   0.5000000), wk =   0.0039841
        k(  152) = (   0.4900000  -0.0000000   0.4900000), wk =   0.0039841
        k(  153) = (   0.4800000  -0.0000000   0.4800000), wk =   0.0039841
        k(  154) = (   0.4700000  -0.0000000   0.4700000), wk =   0.0039841
        k(  155) = (   0.4600000   0.0000000   0.4600000), wk =   0.0039841
        k(  156) = (   0.4500000  -0.0000000   0.4500000), wk =   0.0039841
        k(  157) = (   0.4400000   0.0000000   0.4400000), wk =   0.0039841
        k(  158) = (   0.4300000   0.0000000   0.4300000), wk =   0.0039841
        k(  159) = (   0.4200000   0.0000000   0.4200000), wk =   0.0039841
        k(  160) = (   0.4100000   0.0000000   0.4100000), wk =   0.0039841
        k(  161) = (   0.4000000   0.0000000   0.4000000), wk =   0.0039841
        k(  162) = (   0.3900000   0.0000000   0.3900000), wk =   0.0039841
        k(  163) = (   0.3800000  -0.0000000   0.3800000), wk =   0.0039841
        k(  164) = (   0.3700000  -0.0000000   0.3700000), wk =   0.0039841
        k(  165) = (   0.3600000  -0.0000000   0.3600000), wk =   0.0039841
        k(  166) = (   0.3500000   0.0000000   0.3500000), wk =   0.0039841
        k(  167) = (   0.3400000  -0.0000000   0.3400000), wk =   0.0039841
        k(  168) = (   0.3300000  -0.0000000   0.3300000), wk =   0.0039841
        k(  169) = (   0.3200000  -0.0000000   0.3200000), wk =   0.0039841
        k(  170) = (   0.3100000   0.0000000   0.3100000), wk =   0.0039841
        k(  171) = (   0.3000000   0.0000000   0.3000000), wk =   0.0039841
        k(  172) = (   0.2900000   0.0000000   0.2900000), wk =   0.0039841
        k(  173) = (   0.2800000   0.0000000   0.2800000), wk =   0.0039841
        k(  174) = (   0.2700000   0.0000000   0.2700000), wk =   0.0039841
        k(  175) = (   0.2600000  -0.0000000   0.2600000), wk =   0.0039841
        k(  176) = (   0.2500000   0.0000000   0.2500000), wk =   0.0039841
        k(  177) = (   0.2400000  -0.0000000   0.2400000), wk =   0.0039841
        k(  178) = (   0.2300000   0.0000000   0.2300000), wk =   0.0039841
        k(  179) = (   0.2200000   0.0000000   0.2200000), wk =   0.0039841
        k(  180) = (   0.2100000   0.0000000   0.2100000), wk =   0.0039841
        k(  181) = (   0.2000000   0.0000000   0.2000000), wk =   0.0039841
        k(  182) = (   0.1900000  -0.0000000   0.1900000), wk =   0.0039841
        k(  183) = (   0.1800000  -0.0000000   0.1800000), wk =   0.0039841
        k(  184) = (   0.1700000  -0.0000000   0.1700000), wk =   0.0039841
        k(  185) = (   0.1600000  -0.0000000   0.1600000), wk =   0.0039841
        k(  186) = (   0.1500000  -0.0000000   0.1500000), wk =   0.0039841
        k(  187) = (   0.1400000   0.0000000   0.1400000), wk =   0.0039841
        k(  188) = (   0.1300000  -0.0000000   0.1300000), wk =   0.0039841
        k(  189) = (   0.1200000  -0.0000000   0.1200000), wk =   0.0039841
        k(  190) = (   0.1100000   0.0000000   0.1100000), wk =   0.0039841
        k(  191) = (   0.1000000   0.0000000   0.1000000), wk =   0.0039841
        k(  192) = (   0.0900000   0.0000000   0.0900000), wk =   0.0039841
        k(  193) = (   0.0800000  -0.0000000   0.0800000), wk =   0.0039841
        k(  194) = (   0.0700000   0.0000000   0.0700000), wk =   0.0039841
        k(  195) = (   0.0600000  -0.0000000   0.0600000), wk =   0.0039841
        k(  196) = (   0.0500000   0.0000000   0.0500000), wk =   0.0039841
        k(  197) = (   0.0400000   0.0000000   0.0400000), wk =   0.0039841
        k(  198) = (   0.0300000   0.0000000   0.0300000), wk =   0.0039841
        k(  199) = (   0.0200000  -0.0000000   0.0200000), wk =   0.0039841
        k(  200) = (   0.0100000  -0.0000000   0.0100000), wk =   0.0039841
        k(  201) = (   0.0000000   0.0000000   0.0000000), wk =   0.0039841
        k(  202) = (   0.0100000  -0.0000000   0.0000000), wk =   0.0039841
        k(  203) = (   0.0200000  -0.0000000   0.0000000), wk =   0.0039841
        k(  204) = (   0.0300000  -0.0000000  -0.0000000), wk =   0.0039841
        k(  205) = (   0.0400000  -0.0000000   0.0000000), wk =   0.0039841
        k(  206) = (   0.0500000   0.0000000   0.0000000), wk =   0.0039841
        k(  207) = (   0.0600000  -0.0000000  -0.0000000), wk =   0.0039841
        k(  208) = (   0.0700000   0.0000000   0.0000000), wk =   0.0039841
        k(  209) = (   0.0800000  -0.0000000   0.0000000), wk =   0.0039841
        k(  210) = (   0.0900000  -0.0000000   0.0000000), wk =   0.0039841
        k(  211) = (   0.1000000   0.0000000   0.0000000), wk =   0.0039841
        k(  212) = (   0.1100000   0.0000000   0.0000000), wk =   0.0039841
        k(  213) = (   0.1200000  -0.0000000  -0.0000000), wk =   0.0039841
        k(  214) = (   0.1300000  -0.0000000   0.0000000), wk =   0.0039841
        k(  215) = (   0.1400000   0.0000000   0.0000000), wk =   0.0039841
        k(  216) = (   0.1500000   0.0000000  -0.0000000), wk =   0.0039841
        k(  217) = (   0.1600000  -0.0000000   0.0000000), wk =   0.0039841
        k(  218) = (   0.1700000  -0.0000000  -0.0000000), wk =   0.0039841
        k(  219) = (   0.1800000  -0.0000000   0.0000000), wk =   0.0039841
        k(  220) = (   0.1900000  -0.0000000  -0.0000000), wk =   0.0039841
        k(  221) = (   0.2000000   0.0000000   0.0000000), wk =   0.0039841
        k(  222) = (   0.2100000   0.0000000   0.0000000), wk =   0.0039841
        k(  223) = (   0.2200000   0.0000000   0.0000000), wk =   0.0039841
        k(  224) = (   0.2300000   0.0000000   0.0000000), wk =   0.0039841
        k(  225) = (   0.2400000  -0.0000000  -0.0000000), wk =   0.0039841
        k(  226) = (   0.2500000   0.0000000   0.0000000), wk =   0.0039841
        k(  227) = (   0.2600000  -0.0000000   0.0000000), wk =   0.0039841
        k(  228) = (   0.2700000   0.0000000  -0.0000000), wk =   0.0039841
        k(  229) = (   0.2800000   0.0000000   0.0000000), wk =   0.0039841
        k(  230) = (   0.2900000   0.0000000   0.0000000), wk =   0.0039841
        k(  231) = (   0.3000000   0.0000000  -0.0000000), wk =   0.0039841
        k(  232) = (   0.3100000   0.0000000   0.0000000), wk =   0.0039841
        k(  233) = (   0.3200000  -0.0000000   0.0000000), wk =   0.0039841
        k(  234) = (   0.3300000   0.0000000   0.0000000), wk =   0.0039841
        k(  235) = (   0.3400000  -0.0000000  -0.0000000), wk =   0.0039841
        k(  236) = (   0.3500000   0.0000000   0.0000000), wk =   0.0039841
        k(  237) = (   0.3600000  -0.0000000   0.0000000), wk =   0.0039841
        k(  238) = (   0.3700000  -0.0000000   0.0000000), wk =   0.0039841
        k(  239) = (   0.3800000  -0.0000000  -0.0000000), wk =   0.0039841
        k(  240) = (   0.3900000   0.0000000   0.0000000), wk =   0.0039841
        k(  241) = (   0.4000000   0.0000000   0.0000000), wk =   0.0039841
        k(  242) = (   0.4100000   0.0000000   0.0000000), wk =   0.0039841
        k(  243) = (   0.4200000   0.0000000   0.0000000), wk =   0.0039841
        k(  244) = (   0.4300000   0.0000000  -0.0000000), wk =   0.0039841
        k(  245) = (   0.4400000   0.0000000   0.0000000), wk =   0.0039841
        k(  246) = (   0.4500000  -0.0000000   0.0000000), wk =   0.0039841
        k(  247) = (   0.4600000   0.0000000   0.0000000), wk =   0.0039841
        k(  248) = (   0.4700000   0.0000000  -0.0000000), wk =   0.0039841
        k(  249) = (   0.4800000  -0.0000000  -0.0000000), wk =   0.0039841
        k(  250) = (   0.4900000  -0.0000000  -0.0000000), wk =   0.0039841
        k(  251) = (   0.5000000   0.0000000   0.0000000), wk =   0.0039841

     Dense  grid:   187971 G-vectors     FFT dimensions: ( 256, 256, 256)

     Dynamical RAM for                 wfc:       5.38 MB

     Dynamical RAM for     wfc (w. buffer):       5.38 MB

     Dynamical RAM for             U proj.:       0.99 MB

     Dynamical RAM for  U proj. (w. buff.):       0.99 MB

     Dynamical RAM for           str. fact:       0.36 MB

     Dynamical RAM for           local pot:       0.00 MB

     Dynamical RAM for          nlocal pot:       5.33 MB

     Dynamical RAM for                qrad:      13.03 MB

     Dynamical RAM for          rho,v,vnew:      49.08 MB

     Dynamical RAM for           G-vectors:       0.38 MB

     Dynamical RAM for          h,s,v(r/c):       2.64 MB

     Dynamical RAM for          <psi|beta>:       3.49 MB

     Dynamical RAM for                 psi:      10.75 MB

     Dynamical RAM for                hpsi:      10.75 MB

     Dynamical RAM for                spsi:      10.75 MB

     Dynamical RAM for      wfcinit/wfcrot:       9.38 MB

     Dynamical RAM for           addusdens:      55.66 MB

     Estimated static dynamical RAM per process >     106.99 MB

     Estimated max dynamical RAM per process >     162.65 MB

     Estimated total dynamical RAM >       5.08 GB

     Check: negative core charge=   -0.000015
     Generating pointlists ...
     new r_m :   0.0448 (alat units)  2.3181 (a.u.) for type    1
     new r_m :   0.0448 (alat units)  2.3181 (a.u.) for type    2
     new r_m :   0.0456 (alat units)  2.3625 (a.u.) for type    3
     new r_m :   0.0448 (alat units)  2.3181 (a.u.) for type    4

     The potential is recalculated from file :
     ./tmp/MnBi2Te4.save/charge-density

 --- in v_hubbard ---
Hub. E (dc, noflip, flip, total)    6.5933   6.6770  -0.0003   0.0835
 -------

     STARTING HUBBARD OCCUPATIONS:

     ================= HUBBARD OCCUPATIONS ================
     ------------------------ ATOM    1 ------------------------
     Tr[ns(  1)] (up, down, total) =   4.97432  0.28785  5.26217
     eigenvalues:
       0.017  0.018  0.019  0.116  0.118  0.989  0.991  0.998  0.998  0.998
     eigenvectors (columns):
       0.000  0.000 -0.007  0.009  0.000 -0.000  0.000  0.001 -1.000 -0.000
       0.000  0.000 -0.000  0.000 -0.000 -0.000  0.000  0.000  0.000  0.000
       0.009 -0.006 -0.000  0.000 -0.004  0.543  0.529 -0.453 -0.001  0.469
      -0.000  0.005  0.000  0.000 -0.005 -0.453 -0.469 -0.543 -0.001  0.529
      -0.000 -0.000  0.000  0.000 -0.000  0.000 -0.000  0.000  0.000  0.000
      -0.000 -0.000  0.000  0.000  0.000 -0.000  0.000  0.000  0.000  0.000
      -0.000 -0.438 -0.395  0.579  0.563  0.000 -0.005 -0.000  0.008  0.005
       0.000  0.000 -0.000 -0.000  0.000 -0.000  0.000 -0.000  0.000  0.000
       0.000  0.000 -0.000  0.000 -0.000  0.000 -0.000 -0.000  0.000  0.000
      -0.000 -0.555 -0.587 -0.389 -0.443 -0.000 -0.006  0.000  0.000 -0.004
     occupations, | n_(i1, i2)^(sigma1, sigma2) |:
       0.998  0.000  0.000  0.000  0.000  0.000  0.007  0.007  0.001  0.001
       0.000  0.993  0.001  0.000  0.004  0.009  0.001  0.001  0.005  0.005
       0.000  0.001  0.993  0.004  0.000  0.009  0.001  0.001  0.005  0.005
       0.000  0.000  0.004  0.995  0.000  0.000  0.004  0.004  0.000  0.000
       0.000  0.004  0.000  0.000  0.995  0.000  0.004  0.004  0.000  0.000
       0.000  0.009  0.009  0.000  0.000  0.017  0.000  0.000  0.000  0.000
       0.007  0.001  0.001  0.004  0.004  0.000  0.083  0.003  0.002  0.047
       0.007  0.001  0.001  0.004  0.004  0.000  0.003  0.083  0.047  0.002
       0.001  0.005  0.005  0.000  0.000  0.000  0.002  0.047  0.053  0.004
       0.001  0.005  0.005  0.000  0.000  0.000  0.047  0.002  0.004  0.053
     Atomic magnetic moment mx, my, mz =     0.000000    0.000084    4.686470
     ------------------------ ATOM    2 ------------------------
     Tr[ns(  2)] (up, down, total) =   0.28755  4.97428  5.26183
     eigenvalues:
       0.017  0.018  0.019  0.116  0.118  0.989  0.991  0.998  0.998  0.998
     eigenvectors (columns):
      -1.000  0.001 -0.001  0.000  0.000 -0.010 -0.000 -0.008  0.000  0.000
       0.000  0.000  0.000 -0.000  0.000 -0.000 -0.000  0.000 -0.000 -0.000
      -0.000 -0.439 -0.394  0.586  0.555  0.000 -0.005  0.000  0.008 -0.005
      -0.000 -0.556 -0.585 -0.395 -0.438 -0.000 -0.006 -0.000  0.000  0.004
       0.000  0.000  0.000  0.000 -0.000 -0.000 -0.000 -0.000 -0.000  0.000
      -0.000 -0.000 -0.000  0.000 -0.000 -0.000  0.000  0.000 -0.000 -0.000
      -0.009  0.006 -0.000 -0.000  0.004  0.543 -0.529  0.452  0.001  0.469
       0.000  0.000  0.000  0.000  0.000 -0.000 -0.000 -0.000  0.000  0.000
      -0.000 -0.000  0.000 -0.000 -0.000  0.000  0.000 -0.000  0.000  0.000
       0.000 -0.005  0.000  0.000  0.005 -0.453  0.469  0.543  0.001  0.530
     occupations, | n_(i1, i2)^(sigma1, sigma2) |:
       0.017  0.000  0.000  0.000  0.000  0.000  0.009  0.009  0.000  0.000
       0.000  0.083  0.003  0.002  0.047  0.007  0.001  0.001  0.004  0.004
       0.000  0.003  0.083  0.047  0.002  0.007  0.001  0.001  0.004  0.004
       0.000  0.002  0.047  0.053  0.004  0.001  0.005  0.005  0.001  0.001
       0.000  0.047  0.002  0.004  0.053  0.001  0.005  0.005  0.001  0.001
       0.000  0.007  0.007  0.001  0.001  0.998  0.000  0.000  0.000  0.000
       0.009  0.001  0.001  0.005  0.005  0.000  0.993  0.001  0.000  0.004
       0.009  0.001  0.001  0.005  0.005  0.000  0.001  0.993  0.004  0.000
       0.000  0.004  0.004  0.001  0.001  0.000  0.000  0.004  0.995  0.000
       0.000  0.004  0.004  0.001  0.001  0.000  0.004  0.000  0.000  0.995
     Atomic magnetic moment mx, my, mz =    -0.000000    0.000091   -4.686724

     Number of occupied Hubbard levels =   10.5240

     Atomic wfc used for Hubbard projectors are orthogonalized

     Starting wfcs are  176 randomized atomic wfcs +   64 random wfcs
     Checking if some PAW data can be deallocated... 
       PAW data deallocated on   29 nodes for type:  1
       PAW data deallocated on   29 nodes for type:  2
       PAW data deallocated on   22 nodes for type:  3
       PAW data deallocated on   16 nodes for type:  4

     Band Structure Calculation
     Davidson diagonalization with overlap

     Computing kpt #:     1  of   251
     total cpu time spent up to now is      364.3 secs

     Computing kpt #:     2  of   251
     total cpu time spent up to now is      759.7 secs

     Computing kpt #:     3  of   251
     total cpu time spent up to now is     1109.5 secs

     Computing kpt #:     4  of   251
     total cpu time spent up to now is     1456.8 secs

     Computing kpt #:     5  of   251
     total cpu time spent up to now is     1802.2 secs

     Computing kpt #:     6  of   251
     total cpu time spent up to now is     2192.3 secs

     Computing kpt #:     7  of   251
     total cpu time spent up to now is     2565.4 secs

     Computing kpt #:     8  of   251
     total cpu time spent up to now is     2917.9 secs

     Computing kpt #:     9  of   251
     total cpu time spent up to now is     3356.8 secs

     Computing kpt #:    10  of   251
     total cpu time spent up to now is     3735.0 secs

     Computing kpt #:    11  of   251
     total cpu time spent up to now is     4089.1 secs

     Computing kpt #:    12  of   251
     total cpu time spent up to now is     4442.5 secs

     Computing kpt #:    13  of   251
     total cpu time spent up to now is     4880.9 secs

     Computing kpt #:    14  of   251
     total cpu time spent up to now is     5236.0 secs

     Computing kpt #:    15  of   251
     total cpu time spent up to now is     5701.9 secs

     Computing kpt #:    16  of   251
     total cpu time spent up to now is     6106.0 secs

     Computing kpt #:    17  of   251
     total cpu time spent up to now is     6478.9 secs

     Computing kpt #:    18  of   251
     total cpu time spent up to now is     6847.1 secs

     Computing kpt #:    19  of   251
     total cpu time spent up to now is     7205.7 secs

     Computing kpt #:    20  of   251
     total cpu time spent up to now is     7618.5 secs

     Computing kpt #:    21  of   251
     total cpu time spent up to now is     7960.5 secs

     Computing kpt #:    22  of   251
     total cpu time spent up to now is     8321.8 secs

     Computing kpt #:    23  of   251
     total cpu time spent up to now is     8681.8 secs

     Computing kpt #:    24  of   251
     total cpu time spent up to now is     9049.1 secs

     Computing kpt #:    25  of   251
     total cpu time spent up to now is     9412.1 secs

     Computing kpt #:    26  of   251
     total cpu time spent up to now is     9748.8 secs

     Computing kpt #:    27  of   251
     total cpu time spent up to now is    10086.4 secs

     Computing kpt #:    28  of   251
     total cpu time spent up to now is    10441.8 secs

     Computing kpt #:    29  of   251
     total cpu time spent up to now is    10805.3 secs

     Computing kpt #:    30  of   251
     total cpu time spent up to now is    11143.6 secs

     Computing kpt #:    31  of   251
     total cpu time spent up to now is    11541.3 secs

     Computing kpt #:    32  of   251
     total cpu time spent up to now is    11978.4 secs

     Computing kpt #:    33  of   251
     total cpu time spent up to now is    12460.0 secs

     Computing kpt #:    34  of   251
     total cpu time spent up to now is    12824.9 secs

     Computing kpt #:    35  of   251
     total cpu time spent up to now is    13224.5 secs

     Computing kpt #:    36  of   251
     total cpu time spent up to now is    13631.1 secs

     Computing kpt #:    37  of   251
     total cpu time spent up to now is    14028.3 secs

     Computing kpt #:    38  of   251
     total cpu time spent up to now is    14424.0 secs

     Computing kpt #:    39  of   251
     c_bands:  2 eigenvalues not converged
     total cpu time spent up to now is    14847.3 secs

     Computing kpt #:    40  of   251
     total cpu time spent up to now is    15243.0 secs

     Computing kpt #:    41  of   251
     total cpu time spent up to now is    15641.4 secs

     Computing kpt #:    42  of   251
     total cpu time spent up to now is    16044.7 secs

     Computing kpt #:    43  of   251
     total cpu time spent up to now is    16528.5 secs

     Computing kpt #:    44  of   251
     total cpu time spent up to now is    16927.0 secs

     Computing kpt #:    45  of   251
     total cpu time spent up to now is    17419.3 secs

     Computing kpt #:    46  of   251
     total cpu time spent up to now is    17785.3 secs

     Computing kpt #:    47  of   251
     total cpu time spent up to now is    18198.9 secs

     Computing kpt #:    48  of   251
     total cpu time spent up to now is    18984.7 secs

     Computing kpt #:    49  of   251
     total cpu time spent up to now is    19535.6 secs

     Computing kpt #:    50  of   251
     total cpu time spent up to now is    19909.8 secs

     Computing kpt #:    51  of   251
     total cpu time spent up to now is    20278.8 secs

     Computing kpt #:    52  of   251
     total cpu time spent up to now is    20961.1 secs

     Computing kpt #:    53  of   251
     total cpu time spent up to now is    21332.6 secs

     Computing kpt #:    54  of   251
     total cpu time spent up to now is    21704.6 secs

     Computing kpt #:    55  of   251
     total cpu time spent up to now is    22078.7 secs

     Computing kpt #:    56  of   251
     total cpu time spent up to now is    22457.6 secs

     Computing kpt #:    57  of   251
     total cpu time spent up to now is    22834.2 secs

     Computing kpt #:    58  of   251
     total cpu time spent up to now is    23209.4 secs

     Computing kpt #:    59  of   251
     total cpu time spent up to now is    23670.0 secs

     Computing kpt #:    60  of   251
     total cpu time spent up to now is    24045.4 secs

     Computing kpt #:    61  of   251
     total cpu time spent up to now is    24420.4 secs

     Computing kpt #:    62  of   251
     total cpu time spent up to now is    24791.4 secs

     Computing kpt #:    63  of   251
     total cpu time spent up to now is    25165.3 secs

     Computing kpt #:    64  of   251
     total cpu time spent up to now is    25564.8 secs

     Computing kpt #:    65  of   251
     total cpu time spent up to now is    25966.3 secs

     Computing kpt #:    66  of   251
     total cpu time spent up to now is    26338.5 secs

     Computing kpt #:    67  of   251
     total cpu time spent up to now is    26706.4 secs

     Computing kpt #:    68  of   251
     total cpu time spent up to now is    27109.8 secs

     Computing kpt #:    69  of   251
     total cpu time spent up to now is    27475.4 secs

     Computing kpt #:    70  of   251
     total cpu time spent up to now is    27865.3 secs

     Computing kpt #:    71  of   251
     total cpu time spent up to now is    28229.1 secs

     Computing kpt #:    72  of   251
     total cpu time spent up to now is    28589.7 secs

     Computing kpt #:    73  of   251
     total cpu time spent up to now is    29113.4 secs

     Computing kpt #:    74  of   251
     total cpu time spent up to now is    29487.8 secs

     Computing kpt #:    75  of   251
     total cpu time spent up to now is    29864.4 secs

     Computing kpt #:    76  of   251
     total cpu time spent up to now is    30214.0 secs

     Computing kpt #:    77  of   251
     total cpu time spent up to now is    30563.0 secs

     Computing kpt #:    78  of   251
     total cpu time spent up to now is    30951.2 secs

     Computing kpt #:    79  of   251
     total cpu time spent up to now is    31300.9 secs

     Computing kpt #:    80  of   251
     total cpu time spent up to now is    31624.9 secs

     Computing kpt #:    81  of   251
     total cpu time spent up to now is    31946.8 secs

     Computing kpt #:    82  of   251
     total cpu time spent up to now is    32268.9 secs

     Computing kpt #:    83  of   251
     total cpu time spent up to now is    32589.7 secs

     Computing kpt #:    84  of   251
     total cpu time spent up to now is    32910.4 secs

     Computing kpt #:    85  of   251
     total cpu time spent up to now is    33229.7 secs

     Computing kpt #:    86  of   251
     total cpu time spent up to now is    33549.9 secs

     Computing kpt #:    87  of   251
     total cpu time spent up to now is    33894.2 secs

     Computing kpt #:    88  of   251
     total cpu time spent up to now is    34238.8 secs

     Computing kpt #:    89  of   251
     total cpu time spent up to now is    34584.8 secs

     Computing kpt #:    90  of   251
     total cpu time spent up to now is    34930.3 secs

     Computing kpt #:    91  of   251
     total cpu time spent up to now is    35276.9 secs

     Computing kpt #:    92  of   251
     total cpu time spent up to now is    35627.0 secs

     Computing kpt #:    93  of   251
     total cpu time spent up to now is    35976.1 secs

     Computing kpt #:    94  of   251
     total cpu time spent up to now is    36330.3 secs

     Computing kpt #:    95  of   251
     total cpu time spent up to now is    36783.9 secs

     Computing kpt #:    96  of   251
     total cpu time spent up to now is    37246.0 secs

     Computing kpt #:    97  of   251
     total cpu time spent up to now is    37655.6 secs

     Computing kpt #:    98  of   251
     c_bands:  1 eigenvalues not converged
     total cpu time spent up to now is    38068.2 secs

     Computing kpt #:    99  of   251
     total cpu time spent up to now is    38430.3 secs

     Computing kpt #:   100  of   251
     total cpu time spent up to now is    38794.1 secs

     Computing kpt #:   101  of   251
     total cpu time spent up to now is    39157.6 secs

     Computing kpt #:   102  of   251
     total cpu time spent up to now is    39520.6 secs

     Computing kpt #:   103  of   251
     total cpu time spent up to now is    39884.2 secs

     Computing kpt #:   104  of   251
     total cpu time spent up to now is    40276.0 secs

     Computing kpt #:   105  of   251
     total cpu time spent up to now is    41097.6 secs

     Computing kpt #:   106  of   251
     total cpu time spent up to now is    41470.7 secs

     Computing kpt #:   107  of   251
     total cpu time spent up to now is    41833.4 secs

     Computing kpt #:   108  of   251
     total cpu time spent up to now is    42195.7 secs

     Computing kpt #:   109  of   251
     total cpu time spent up to now is    42554.4 secs

     Computing kpt #:   110  of   251
     total cpu time spent up to now is    42917.9 secs

     Computing kpt #:   111  of   251
     total cpu time spent up to now is    43281.0 secs

     Computing kpt #:   112  of   251
     total cpu time spent up to now is    43645.5 secs

     Computing kpt #:   113  of   251
     total cpu time spent up to now is    44009.0 secs

     Computing kpt #:   114  of   251
     total cpu time spent up to now is    44725.2 secs

     Computing kpt #:   115  of   251
     total cpu time spent up to now is    45133.0 secs

     Computing kpt #:   116  of   251
     total cpu time spent up to now is    45807.5 secs

     Computing kpt #:   117  of   251
     total cpu time spent up to now is    46171.1 secs

     Computing kpt #:   118  of   251
     total cpu time spent up to now is    46580.7 secs

     Computing kpt #:   119  of   251
     total cpu time spent up to now is    47256.8 secs

     Computing kpt #:   120  of   251
     total cpu time spent up to now is    47666.4 secs

     Computing kpt #:   121  of   251
     total cpu time spent up to now is    48167.8 secs

     Computing kpt #:   122  of   251
     total cpu time spent up to now is    48531.0 secs

     Computing kpt #:   123  of   251
     total cpu time spent up to now is    48894.0 secs

     Computing kpt #:   124  of   251
     total cpu time spent up to now is    49256.6 secs

     Computing kpt #:   125  of   251
     total cpu time spent up to now is    49857.7 secs

     Computing kpt #:   126  of   251
     c_bands:  1 eigenvalues not converged
     total cpu time spent up to now is    50274.9 secs

     Computing kpt #:   127  of   251
     total cpu time spent up to now is    50694.5 secs

     Computing kpt #:   128  of   251
     total cpu time spent up to now is    51058.4 secs

     Computing kpt #:   129  of   251
     total cpu time spent up to now is    51422.0 secs

     Computing kpt #:   130  of   251
     total cpu time spent up to now is    51785.3 secs

     Computing kpt #:   131  of   251
     total cpu time spent up to now is    52148.8 secs

     Computing kpt #:   132  of   251
     total cpu time spent up to now is    52512.0 secs

     Computing kpt #:   133  of   251
     total cpu time spent up to now is    52875.6 secs

     Computing kpt #:   134  of   251
     total cpu time spent up to now is    53239.0 secs

     Computing kpt #:   135  of   251
     total cpu time spent up to now is    53602.1 secs

     Computing kpt #:   136  of   251
     total cpu time spent up to now is    53964.7 secs

     Computing kpt #:   137  of   251
     total cpu time spent up to now is    54327.6 secs

     Computing kpt #:   138  of   251
     total cpu time spent up to now is    54690.4 secs

     Computing kpt #:   139  of   251
     total cpu time spent up to now is    55185.4 secs

     Computing kpt #:   140  of   251
     total cpu time spent up to now is    55548.2 secs

     Computing kpt #:   141  of   251
     total cpu time spent up to now is    55911.6 secs

     Computing kpt #:   142  of   251
     total cpu time spent up to now is    56298.8 secs

     Computing kpt #:   143  of   251
     total cpu time spent up to now is    56661.2 secs

     Computing kpt #:   144  of   251
     total cpu time spent up to now is    57023.2 secs

     Computing kpt #:   145  of   251
     total cpu time spent up to now is    57386.5 secs

     Computing kpt #:   146  of   251
     total cpu time spent up to now is    57800.4 secs

     Computing kpt #:   147  of   251
     total cpu time spent up to now is    58188.4 secs

     Computing kpt #:   148  of   251
     total cpu time spent up to now is    58640.6 secs

     Computing kpt #:   149  of   251
     total cpu time spent up to now is    59136.1 secs

     Computing kpt #:   150  of   251
     total cpu time spent up to now is    59498.3 secs

     Computing kpt #:   151  of   251
     total cpu time spent up to now is    59943.9 secs

     Computing kpt #:   152  of   251
     total cpu time spent up to now is    60387.8 secs

     Computing kpt #:   153  of   251
     total cpu time spent up to now is    60748.1 secs

     Computing kpt #:   154  of   251
     total cpu time spent up to now is    61108.1 secs

     Computing kpt #:   155  of   251
     total cpu time spent up to now is    61467.4 secs

     Computing kpt #:   156  of   251
     total cpu time spent up to now is    61828.1 secs

     Computing kpt #:   157  of   251
     total cpu time spent up to now is    62235.0 secs

     Computing kpt #:   158  of   251
     total cpu time spent up to now is    62591.1 secs

     Computing kpt #:   159  of   251
     total cpu time spent up to now is    62943.8 secs

     Computing kpt #:   160  of   251
     total cpu time spent up to now is    63320.0 secs

     Computing kpt #:   161  of   251
     total cpu time spent up to now is    63669.6 secs

     Computing kpt #:   162  of   251
     total cpu time spent up to now is    64019.6 secs

     Computing kpt #:   163  of   251
     total cpu time spent up to now is    64430.9 secs

     Computing kpt #:   164  of   251
     total cpu time spent up to now is    64885.3 secs

     Computing kpt #:   165  of   251
     total cpu time spent up to now is    65622.7 secs

     Computing kpt #:   166  of   251
     total cpu time spent up to now is    66029.5 secs

     Computing kpt #:   167  of   251
     total cpu time spent up to now is    66374.8 secs

     Computing kpt #:   168  of   251
     total cpu time spent up to now is    66720.6 secs

     Computing kpt #:   169  of   251
     total cpu time spent up to now is    67068.2 secs

     Computing kpt #:   170  of   251
     total cpu time spent up to now is    67500.5 secs

     Computing kpt #:   171  of   251
     total cpu time spent up to now is    68024.1 secs

     Computing kpt #:   172  of   251
     total cpu time spent up to now is    68375.7 secs

     Computing kpt #:   173  of   251
     total cpu time spent up to now is    68820.4 secs

     Computing kpt #:   174  of   251
     total cpu time spent up to now is    69171.0 secs

     Computing kpt #:   175  of   251
     total cpu time spent up to now is    69525.2 secs

     Computing kpt #:   176  of   251
     total cpu time spent up to now is    69883.1 secs

     Computing kpt #:   177  of   251
     total cpu time spent up to now is    70235.8 secs

     Computing kpt #:   178  of   251
     total cpu time spent up to now is    70567.3 secs

     Computing kpt #:   179  of   251
     total cpu time spent up to now is    70922.8 secs

     Computing kpt #:   180  of   251
     total cpu time spent up to now is    71556.0 secs

     Computing kpt #:   181  of   251
     total cpu time spent up to now is    71916.9 secs

     Computing kpt #:   182  of   251
     total cpu time spent up to now is    72278.1 secs

     Computing kpt #:   183  of   251
     total cpu time spent up to now is    72641.0 secs

     Computing kpt #:   184  of   251
     total cpu time spent up to now is    73011.9 secs

     Computing kpt #:   185  of   251
     total cpu time spent up to now is    73373.4 secs

     Computing kpt #:   186  of   251
     total cpu time spent up to now is    73735.5 secs

     Computing kpt #:   187  of   251
     total cpu time spent up to now is    74100.1 secs

     Computing kpt #:   188  of   251
     total cpu time spent up to now is    74469.1 secs

     Computing kpt #:   189  of   251
     total cpu time spent up to now is    74815.1 secs

     Computing kpt #:   190  of   251
     total cpu time spent up to now is    75181.3 secs

     Computing kpt #:   191  of   251
     total cpu time spent up to now is    75554.2 secs

     Computing kpt #:   192  of   251
     total cpu time spent up to now is    76085.3 secs

     Computing kpt #:   193  of   251
     total cpu time spent up to now is    76460.3 secs

     Computing kpt #:   194  of   251
     total cpu time spent up to now is    76875.1 secs

     Computing kpt #:   195  of   251
     total cpu time spent up to now is    77352.5 secs

     Computing kpt #:   196  of   251
     total cpu time spent up to now is    77725.9 secs

     Computing kpt #:   197  of   251
     total cpu time spent up to now is    78069.0 secs

     Computing kpt #:   198  of   251
     total cpu time spent up to now is    78435.0 secs

     Computing kpt #:   199  of   251
     total cpu time spent up to now is    78794.1 secs

     Computing kpt #:   200  of   251
     total cpu time spent up to now is    79156.3 secs

     Computing kpt #:   201  of   251
     total cpu time spent up to now is    79511.5 secs

     Computing kpt #:   202  of   251
     total cpu time spent up to now is    79867.6 secs

     Computing kpt #:   203  of   251
     total cpu time spent up to now is    80334.6 secs

     Computing kpt #:   204  of   251
     total cpu time spent up to now is    80699.0 secs

     Computing kpt #:   205  of   251
     total cpu time spent up to now is    81065.7 secs

     Computing kpt #:   206  of   251
     total cpu time spent up to now is    81439.2 secs

     Computing kpt #:   207  of   251
     total cpu time spent up to now is    81813.6 secs

     Computing kpt #:   208  of   251
     total cpu time spent up to now is    82187.8 secs

     Computing kpt #:   209  of   251
     total cpu time spent up to now is    82539.7 secs

     Computing kpt #:   210  of   251
     c_bands:  2 eigenvalues not converged
     total cpu time spent up to now is    82972.4 secs

     Computing kpt #:   211  of   251
     total cpu time spent up to now is    83374.7 secs

     Computing kpt #:   212  of   251
     total cpu time spent up to now is    83750.0 secs

     Computing kpt #:   213  of   251
     total cpu time spent up to now is    84120.6 secs

     Computing kpt #:   214  of   251
     total cpu time spent up to now is    84495.4 secs

     Computing kpt #:   215  of   251
     total cpu time spent up to now is    84865.5 secs

     Computing kpt #:   216  of   251
     total cpu time spent up to now is    85231.4 secs

     Computing kpt #:   217  of   251
     total cpu time spent up to now is    85620.4 secs

     Computing kpt #:   218  of   251
     total cpu time spent up to now is    86007.6 secs

     Computing kpt #:   219  of   251
     total cpu time spent up to now is    86395.9 secs

     Computing kpt #:   220  of   251
     total cpu time spent up to now is    86759.8 secs

     Computing kpt #:   221  of   251
     c_bands:  1 eigenvalues not converged
     total cpu time spent up to now is    87174.3 secs

     Computing kpt #:   222  of   251
     total cpu time spent up to now is    87535.0 secs

     Computing kpt #:   223  of   251
     total cpu time spent up to now is    87893.2 secs

     Computing kpt #:   224  of   251
     total cpu time spent up to now is    88250.3 secs

     Computing kpt #:   225  of   251
     total cpu time spent up to now is    88607.4 secs

     Computing kpt #:   226  of   251
     total cpu time spent up to now is    88959.6 secs

     Computing kpt #:   227  of   251
     total cpu time spent up to now is    89313.0 secs

     Computing kpt #:   228  of   251
     total cpu time spent up to now is    89709.7 secs

     Computing kpt #:   229  of   251
     total cpu time spent up to now is    90084.3 secs

     Computing kpt #:   230  of   251
     total cpu time spent up to now is    90436.5 secs

     Computing kpt #:   231  of   251
     total cpu time spent up to now is    90786.4 secs

     Computing kpt #:   232  of   251
[...]
    10.3767  10.4414  10.5120  10.5642  10.5986  10.6503  10.7450  10.7626
    11.0538  11.1201  11.1778  11.2020  11.4682  11.5011  11.6590  11.6701
    11.8110  11.8376  12.0423  12.1032  12.4555  12.5288  13.1079  13.1815
    13.5066  13.5119  13.7713  13.7904  14.1356  14.1748  14.3976  14.4240
    14.7046  14.7505  14.8590  14.9071  15.2539  15.2933  15.4088  15.4116
    15.8109  15.8247  15.9861  16.0013  16.0373  16.0657  16.4423  16.4485
    16.5318  16.5334  16.6368  16.6418  16.6848  16.6894  16.8883  16.8914
    16.9509  16.9531  17.0755  17.0793  17.3338  17.3686  17.3885  17.4075
    17.5655  17.5851  17.5966  17.6227  17.6945  17.7025  17.8077  17.8136
    18.1619  18.1631  18.4077  18.4155  18.5356  18.5675  18.6508  18.6744

          k = 2.7818-1.6061 0.1473 ( 23494 PWs)   bands (ev):

   -74.9199 -74.8242 -70.0244 -69.9285 -44.1517 -44.0560 -43.7425 -43.6464
   -43.2386 -43.1428 -39.1944 -39.0985 -38.7861 -38.6900 -38.4395 -38.3436
   -17.0022 -17.0021 -16.9989 -16.9988 -16.9954 -16.9953 -16.9951 -16.9950
   -16.8920 -16.8920 -16.8890 -16.8890 -16.8862 -16.8861 -16.8858 -16.8857
   -14.0280 -14.0280 -14.0260 -14.0259 -14.0160 -14.0159 -14.0138 -14.0137
   -14.0017 -14.0016 -14.0004 -14.0003 -13.9184 -13.9183 -13.9165 -13.9165
   -13.9065 -13.9064 -13.9046 -13.9045 -13.8926 -13.8925 -13.8909 -13.8909
    -4.0115  -4.0009  -3.9957  -3.9843  -3.8643  -3.8591  -3.8533  -3.8378
    -3.2069  -3.1925  -3.1208  -3.0863  -3.0703  -3.0618  -2.9779  -2.9213
    -2.3312  -2.3120  -2.3115  -2.3007  -2.1033  -2.0902  -2.0862  -2.0662
     1.7162   1.8132   1.8521   1.9095   1.9493   2.0060   2.1216   2.1837
     2.2180   2.2793   2.6241   2.6275   2.7722   2.8137   3.0054   3.0108
     3.1393   3.1898   3.4530   3.4704   3.8306   3.8401   3.9784   3.9829
     4.2149   4.2154   4.5244   4.5382   4.5578   4.5617   4.7534   4.7606
     4.7963   4.8240   4.8690   4.8848   5.1564   5.1651   5.3529   5.3549
     5.5318   5.5416   5.8355   5.8549   5.8818   5.9251   6.0194   6.0582
     6.2880   6.3098   6.3713   6.4106   6.7417   6.7481   7.0292   7.0549
     7.1575   7.2201   8.2229   8.2569   8.4406   8.4485   8.8136   8.8425
     8.9637   8.9700   9.3072   9.3416   9.4636   9.5041   9.5750   9.6017
     9.7190   9.7458   9.8001   9.8329  10.0773  10.0935  10.2501  10.2833
    10.3784  10.4420  10.5130  10.5558  10.5932  10.6473  10.7213  10.7457
    11.0598  11.1303  11.1936  11.2139  11.4701  11.5105  11.6492  11.6623
    11.7862  11.8132  12.0403  12.1016  12.4588  12.5335  13.1023  13.1768
    13.5149  13.5199  13.7655  13.7816  14.1481  14.1910  14.4061  14.4298
    14.6930  14.7340  14.8439  14.9023  15.3160  15.3596  15.4663  15.4690
    15.8911  15.8936  16.0926  16.1196  16.1263  16.1341  16.4302  16.4352
    16.5968  16.5979  16.7256  16.7294  16.7971  16.7975  16.9180  16.9243
    17.0194  17.0277  17.1663  17.1689  17.4610  17.4914  17.5059  17.5257
    17.6814  17.6938  17.7051  17.7332  17.7435  17.7513  17.8455  17.8586
    18.1776  18.1792  18.4599  18.4993  18.5208  18.5287  18.6427  18.6662

          k = 2.8450-1.6426 0.1506 ( 23495 PWs)   bands (ev):

   -74.9199 -74.8242 -70.0244 -69.9285 -44.1517 -44.0560 -43.7425 -43.6464
   -43.2386 -43.1428 -39.1944 -39.0985 -38.7861 -38.6900 -38.4395 -38.3436
   -17.0021 -17.0021 -16.9988 -16.9988 -16.9954 -16.9953 -16.9951 -16.9950
   -16.8920 -16.8920 -16.8890 -16.8890 -16.8862 -16.8861 -16.8858 -16.8857
   -14.0281 -14.0280 -14.0260 -14.0260 -14.0160 -14.0159 -14.0138 -14.0137
   -14.0016 -14.0015 -14.0003 -14.0002 -13.9184 -13.9184 -13.9166 -13.9166
   -13.9065 -13.9064 -13.9045 -13.9045 -13.8925 -13.8924 -13.8908 -13.8908
    -3.9673  -3.9572  -3.9510  -3.9394  -3.8312  -3.8235  -3.8181  -3.8024
    -3.2133  -3.2007  -3.1428  -3.1031  -3.0750  -3.0671  -2.9994  -2.9401
    -2.3533  -2.3347  -2.3306  -2.3174  -2.1285  -2.1130  -2.1057  -2.0871
     1.7102   1.8072   1.8515   1.9086   1.9487   2.0051   2.1259   2.1949
     2.2223   2.2905   2.6062   2.6123   2.7440   2.7862   2.9837   2.9943
     3.1201   3.1730   3.4717   3.4904   3.8161   3.8266   3.9734   3.9776
     4.1836   4.1851   4.5271   4.5399   4.5582   4.5644   4.7397   4.7482
     4.7889   4.8225   4.8456   4.8676   5.1135   5.1248   5.3490   5.3505
     5.5102   5.5186   5.8349   5.8529   5.8771   5.9156   6.0242   6.0614
     6.2838   6.3112   6.3719   6.4058   6.7270   6.7319   7.0254   7.0539
     7.1491   7.2145   8.2175   8.2534   8.4280   8.4387   8.8143   8.8441
     8.9508   8.9589   9.2960   9.3316   9.4623   9.5042   9.5878   9.6100
     9.7160   9.7391   9.7987   9.8337  10.0725  10.0890  10.2412  10.2772
    10.3801  10.4431  10.5143  10.5450  10.5884  10.6436  10.6991  10.7303
    11.0650  11.1389  11.2109  11.2280  11.4704  11.5196  11.6389  11.6579
    11.7641  11.7914  12.0385  12.1002  12.4615  12.5376  13.0961  13.1716
    13.5239  13.5291  13.7581  13.7712  14.1592  14.2068  14.4088  14.4338
    14.6775  14.7211  14.8326  14.9000  15.3690  15.4174  15.5209  15.5261
    15.9453  15.9580  16.1793  16.1950  16.2371  16.2397  16.3974  16.4099
    16.6458  16.6466  16.7983  16.8012  16.8792  16.8804  16.9839  16.9997
    17.0754  17.0906  17.2744  17.2793  17.5857  17.6052  17.6206  17.6493
    17.7402  17.7452  17.8089  17.8125  17.8358  17.8456  17.9003  17.9256
    18.1867  18.1896  18.4150  18.4575  18.5449  18.5743  18.6398  18.6444

          k = 2.9083-1.6791 0.1540 ( 23499 PWs)   bands (ev):

   -74.9199 -74.8242 -70.0244 -69.9285 -44.1518 -44.0560 -43.7425 -43.6464
   -43.2386 -43.1428 -39.1944 -39.0985 -38.7861 -38.6900 -38.4395 -38.3436
   -17.0021 -17.0021 -16.9988 -16.9988 -16.9954 -16.9953 -16.9951 -16.9950
   -16.8920 -16.8919 -16.8890 -16.8890 -16.8862 -16.8861 -16.8858 -16.8857
   -14.0281 -14.0281 -14.0261 -14.0261 -14.0160 -14.0159 -14.0138 -14.0137
   -14.0015 -14.0015 -14.0002 -14.0002 -13.9185 -13.9184 -13.9167 -13.9167
   -13.9065 -13.9064 -13.9046 -13.9045 -13.8924 -13.8923 -13.8908 -13.8907
    -3.9275  -3.9178  -3.9104  -3.8983  -3.8032  -3.7931  -3.7878  -3.7719
    -3.2199  -3.2096  -3.1655  -3.1237  -3.0811  -3.0694  -3.0209  -2.9578
    -2.3730  -2.3548  -2.3441  -2.3295  -2.1490  -2.1316  -2.1220  -2.1043
     1.7050   1.8020   1.8509   1.9081   1.9481   2.0045   2.1293   2.2054
     2.2258   2.3011   2.5914   2.6010   2.7183   2.7618   2.9653   2.9807
     3.1045   3.1594   3.4943   3.5152   3.7934   3.8049   3.9758   3.9790
     4.1528   4.1559   4.5300   4.5419   4.5602   4.5719   4.7310   4.7404
     4.7825   4.8233   4.8271   4.8567   5.0685   5.0825   5.3502   5.3514
     5.4890   5.4968   5.8320   5.8502   5.8758   5.9072   6.0314   6.0661
     6.2799   6.3124   6.3736   6.4024   6.7140   6.7175   7.0222   7.0537
     7.1413   7.2096   8.2133   8.2512   8.4162   8.4297   8.8158   8.8467
     8.9388   8.9493   9.2867   9.3232   9.4611   9.5040   9.5986   9.6197
     9.7148   9.7345   9.7971   9.8340  10.0689  10.0856  10.2320  10.2700
    10.3815  10.4449  10.5162  10.5329  10.5833  10.6397  10.6804  10.7180
    11.0692  11.1454  11.2281  11.2434  11.4680  11.5262  11.6319  11.6577
    11.7440  11.7717  12.0369  12.0990  12.4636  12.5413  13.0899  13.1666
    13.5333  13.5388  13.7498  13.7602  14.1686  14.2219  14.4056  14.4368
    14.6615  14.7123  14.8245  14.8989  15.4128  15.4663  15.5717  15.5810
    15.9848  16.0043  16.2514  16.2536  16.3474  16.3502  16.3658  16.3865
    16.6779  16.6794  16.8515  16.8534  16.9298  16.9317  17.0743  17.1036
    17.1246  17.1502  17.3954  17.4015  17.7039  17.7092  17.7249  17.7617
    17.7736  17.7762  17.8886  17.8967  17.9284  17.9381  17.9810  18.0147
    18.1929  18.1984  18.3461  18.3814  18.5056  18.5382  18.6810  18.6927

          k = 2.9715-1.7156 0.1573 ( 23496 PWs)   bands (ev):

   -74.9199 -74.8242 -70.0244 -69.9285 -44.1518 -44.0560 -43.7425 -43.6464
   -43.2386 -43.1428 -39.1944 -39.0985 -38.7861 -38.6900 -38.4395 -38.3436
   -17.0021 -17.0021 -16.9988 -16.9988 -16.9954 -16.9953 -16.9951 -16.9950
   -16.8919 -16.8919 -16.8890 -16.8890 -16.8862 -16.8861 -16.8858 -16.8857
   -14.0281 -14.0281 -14.0262 -14.0261 -14.0159 -14.0159 -14.0138 -14.0137
   -14.0015 -14.0014 -14.0002 -14.0001 -13.9185 -13.9185 -13.9168 -13.9167
   -13.9064 -13.9064 -13.9045 -13.9045 -13.8923 -13.8923 -13.8907 -13.8907
    -3.8934  -3.8841  -3.8752  -3.8626  -3.7807  -3.7694  -3.7631  -3.7476
    -3.2259  -3.2184  -3.1863  -3.1418  -3.0887  -3.0730  -3.0399  -2.9730
    -2.3883  -2.3699  -2.3543  -2.3391  -2.1642  -2.1456  -2.1353  -2.1181
     1.7007   1.7978   1.8505   1.9077   1.9477   2.0042   2.1319   2.2146
     2.2284   2.3103   2.5799   2.5933   2.6959   2.7414   2.9505   2.9701
     3.0924   3.1490   3.5194   3.5440   3.7642   3.7778   3.9848   3.9865
     4.1231   4.1284   4.5328   4.5447   4.5630   4.5796   4.7274   4.7374
     4.7761   4.8058   4.8345   4.8543   5.0237   5.0407   5.3547   5.3561
     5.4690   5.4768   5.8278   5.8489   5.8753   5.9003   6.0390   6.0712
     6.2764   6.3131   6.3759   6.4000   6.7032   6.7054   7.0196   7.0539
     7.1343   7.2056   8.2103   8.2500   8.4061   8.4220   8.8175   8.8500
     8.9283   8.9414   9.2793   9.3166   9.4601   9.5037   9.6062   9.6301
     9.7141   9.7328   9.7954   9.8337  10.0666  10.0832  10.2233  10.2626
    10.3825  10.4475  10.5180  10.5214  10.5777  10.6360  10.6659  10.7089
    11.0722  11.1499  11.2439  11.2585  11.4631  11.5279  11.6316  11.6617
    11.7252  11.7539  12.0357  12.0981  12.4652  12.5442  13.0843  13.1621
    13.5421  13.5485  13.7414  13.7493  14.1763  14.2357  14.3985  14.4385
    14.6479  14.7070  14.8187  14.8984  15.4475  15.5057  15.6168  15.6311
    16.0141  16.0331  16.2708  16.2777  16.3757  16.3938  16.4506  16.4529
    16.6980  16.7005  16.8815  16.8822  16.9737  16.9753  17.1169  17.1255
    17.2467  17.2486  17.5194  17.5259  17.7637  17.7735  17.8080  17.8111
    17.8429  17.8891  17.9531  17.9628  18.0153  18.0279  18.0617  18.0961
    18.2070  18.2152  18.2740  18.2993  18.4433  18.4693  18.6788  18.6863

          k = 3.0347-1.7521 0.1607 ( 23500 PWs)   bands (ev):

   -74.9199 -74.8242 -70.0244 -69.9285 -44.1518 -44.0560 -43.7425 -43.6464
   -43.2386 -43.1428 -39.1944 -39.0985 -38.7861 -38.6900 -38.4395 -38.3436
   -17.0021 -17.0021 -16.9988 -16.9988 -16.9954 -16.9953 -16.9951 -16.9951
   -16.8919 -16.8919 -16.8890 -16.8890 -16.8862 -16.8861 -16.8858 -16.8857
   -14.0281 -14.0281 -14.0262 -14.0262 -14.0159 -14.0158 -14.0138 -14.0137
   -14.0014 -14.0014 -14.0001 -14.0001 -13.9185 -13.9185 -13.9168 -13.9168
   -13.9064 -13.9063 -13.9045 -13.9045 -13.8923 -13.8923 -13.8907 -13.8906
    -3.8666  -3.8580  -3.8472  -3.8346  -3.7641  -3.7534  -3.7445  -3.7304
    -3.2304  -3.2260  -3.2032  -3.1553  -3.0965  -3.0791  -3.0533  -2.9845
    -2.3990  -2.3801  -2.3618  -2.3466  -2.1743  -2.1549  -2.1454  -2.1284
     1.6976   1.7946   1.8502   1.9075   1.9474   2.0040   2.1337   2.2217
     2.2302   2.3176   2.5715   2.5890   2.6780   2.7261   2.9397   2.9623
     3.0838   3.1417   3.5447   3.5756   3.7308   3.7497   3.9969   4.0001
     4.0950   4.1035   4.5351   4.5478   4.5651   4.5851   4.7280   4.7388
     4.7693   4.7903   4.8478   4.8618   4.9806   5.0019   5.3608   5.3631
     5.4513   5.4597   5.8239   5.8488   5.8745   5.8957   6.0455   6.0757
     6.2738   6.3136   6.3782   6.3986   6.6951   6.6962   7.0176   7.0545
     7.1288   7.2026   8.2083   8.2495   8.3982   8.4161   8.8192   8.8534
     8.9198   8.9355   9.2740   9.3117   9.4594   9.5033   9.6108   9.6396
     9.7130   9.7338   9.7939   9.8329  10.0656  10.0816  10.2163  10.2560
    10.3832  10.4506  10.5099  10.5213  10.5720  10.6334  10.6559  10.7028
    11.0743  11.1529  11.2568  11.2715  11.4568  11.5254  11.6385  11.6691
    11.7074  11.7378  12.0349  12.0974  12.4662  12.5464  13.0799  13.1586
    13.5495  13.5569  13.7342  13.7399  14.1821  14.2474  14.3902  14.4391
    14.6381  14.7041  14.8147  14.8981  15.4727  15.5351  15.6530  15.6728
    16.0369  16.0487  16.2384  16.2630  16.4353  16.4427  16.5253  16.5274
    16.7192  16.7226  16.8841  16.8856  17.0151  17.0166  17.1211  17.1245
    17.3649  17.3731  17.6317  17.6351  17.7699  17.7740  17.8821  17.8931
    17.9287  17.9813  18.0109  18.0193  18.0899  18.0959  18.1104  18.1478
    18.2123  18.2173  18.2533  18.2542  18.3852  18.4041  18.5702  18.5828

          k = 3.0979-1.7886 0.1640 ( 23510 PWs)   bands (ev):

   -74.9199 -74.8242 -70.0244 -69.9285 -44.1518 -44.0560 -43.7425 -43.6464
   -43.2386 -43.1428 -39.1944 -39.0985 -38.7861 -38.6900 -38.4395 -38.3436
   -17.0021 -17.0021 -16.9988 -16.9988 -16.9954 -16.9953 -16.9951 -16.9951
   -16.8919 -16.8919 -16.8890 -16.8890 -16.8862 -16.8861 -16.8858 -16.8857
   -14.0282 -14.0282 -14.0262 -14.0262 -14.0159 -14.0159 -14.0138 -14.0137
   -14.0014 -14.0014 -14.0001 -14.0001 -13.9185 -13.9185 -13.9168 -13.9168
   -13.9064 -13.9064 -13.9045 -13.9045 -13.8923 -13.8922 -13.8906 -13.8906
    -3.8493  -3.8415  -3.8285  -3.8166  -3.7532  -3.7454  -3.7328  -3.7205
    -3.2330  -3.2313  -3.2143  -3.1633  -3.1024  -3.0858  -3.0602  -2.9916
    -2.4052  -2.3859  -2.3665  -2.3515  -2.1799  -2.1601  -2.1518  -2.1349
     1.6957   1.7927   1.8500   1.9074   1.9472   2.0038   2.1348   2.2263
     2.2313   2.3222   2.5665   2.5872   2.6662   2.7165   2.9331   2.9576
     3.0787   3.1373   3.5657   3.6078   3.6970   3.7265   4.0090   4.0177
     4.0696   4.0836   4.5367   4.5504   4.5660   4.5881   4.7308   4.7432
     4.7627   4.7786   4.8632   4.8797   4.9411   4.9705   5.3667   5.3702
     5.4379   5.4473   5.8213   5.8490   5.8734   5.8931   6.0499   6.0787
     6.2721   6.3138   6.3798   6.3978   6.6899   6.6905   7.0164   7.0550
     7.1252   7.2007   8.2072   8.2493   8.3932   8.4124   8.8204   8.8561
     8.9141   8.9318   9.2708   9.3088   9.4589   9.5030   9.6131   9.6463
     9.7118   9.7357   9.7928   9.8320  10.0654  10.0805  10.2117  10.2513
    10.3834  10.4535  10.5023  10.5233  10.5675  10.6321  10.6500  10.6994
    11.0756  11.1545  11.2653  11.2805  11.4516  11.5218  11.6499  11.6774
    11.6915  11.7246  12.0344  12.0970  12.4668  12.5478  13.0771  13.1563
    13.5546  13.5627  13.7293  13.7332  14.1856  14.2555  14.3835  14.4391
    14.6322  14.7028  14.8124  14.8980  15.4881  15.5534  15.6768  15.7013
    16.0526  16.0578  16.2058  16.2450  16.4924  16.4946  16.5547  16.5558
    16.7599  16.7630  16.8599  16.8628  17.0525  17.0540  17.1080  17.1101
    17.4725  17.4908  17.6599  17.6756  17.8036  17.8178  17.9241  17.9349
    17.9890  18.0338  18.0513  18.0562  18.0941  18.1021  18.1413  18.1968
    18.2078  18.2121  18.2858  18.2935  18.3457  18.3615  18.4742  18.4963

          k = 3.1612-1.8251 0.1674 ( 23516 PWs)   bands (ev):

   -74.9199 -74.8242 -70.0244 -69.9285 -44.1518 -44.0560 -43.7425 -43.6464
   -43.2386 -43.1428 -39.1944 -39.0985 -38.7861 -38.6900 -38.4395 -38.3436
   -17.0021 -17.0021 -16.9988 -16.9988 -16.9954 -16.9954 -16.9951 -16.9951
   -16.8919 -16.8919 -16.8890 -16.8890 -16.8862 -16.8862 -16.8858 -16.8857
   -14.0282 -14.0282 -14.0263 -14.0263 -14.0159 -14.0159 -14.0137 -14.0137
   -14.0014 -14.0014 -14.0001 -14.0001 -13.9186 -13.9185 -13.9169 -13.9168
   -13.9064 -13.9064 -13.9045 -13.9045 -13.8923 -13.8922 -13.8906 -13.8906
    -3.8432  -3.8359  -3.8218  -3.8105  -3.7488  -3.7437  -3.7287  -3.7174
    -3.2339  -3.2332  -3.2182  -3.1658  -3.1047  -3.0887  -3.0621  -2.9940
    -2.4072  -2.3877  -2.3681  -2.3532  -2.1816  -2.1617  -2.1540  -2.1372
     1.6950   1.7920   1.8499   1.9074   1.9471   2.0038   2.1352   2.2279
     2.2316   2.3238   2.5648   2.5867   2.6620   2.7133   2.9309   2.9560
     3.0770   3.1359   3.5745   3.6280   3.6762   3.7169   4.0152   4.0310
     4.0537   4.0749   4.5373   4.5514   4.5661   4.5889   4.7324   4.7465
     4.7590   4.7739   4.8716   4.9042   4.9093   4.9567   5.3692   5.3734
     5.4325   5.4426   5.8204   5.8492   5.8729   5.8924   6.0514   6.0798
     6.2715   6.3138   6.3804   6.3976   6.6881   6.6887   7.0160   7.0553
     7.1240   7.2001   8.2068   8.2493   8.3915   8.4111   8.8208   8.8571
     8.9120   8.9305   9.2697   9.3078   9.4588   9.5029   9.6138   9.6487
     9.7113   9.7365   9.7924   9.8316  10.0655  10.0801  10.2101  10.2495
    10.3835  10.4548  10.4994  10.5242  10.5658  10.6317  10.6480  10.6984
    11.0760  11.1551  11.2683  11.2838  11.4495  11.5202  11.6578  11.6790
    11.6852  11.7185  12.0342  12.0968  12.4670  12.5483  13.0761  13.1556
    13.5564  13.5648  13.7277  13.7308  14.1868  14.2585  14.3810  14.4390
    14.6303  14.7024  14.8116  14.8979  15.4933  15.5596  15.6850  15.7115
    16.0556  16.0647  16.1918  16.2379  16.5252  16.5268  16.5477  16.5494
    16.8077  16.8120  16.8167  16.8264  17.0820  17.0830  17.0870  17.0876
    17.5315  17.5790  17.6069  17.6527  17.8555  17.8947  17.9077  17.9210
    18.0116  18.0456  18.0519  18.0621  18.0824  18.0988  18.1583  18.2173
    18.2416  18.2422  18.2771  18.2844  18.3545  18.3643  18.4183  18.4558

     Writing all to output data dir ./tmp/MnBi2Te4.save/
 
     init_run     :     40.20s CPU     43.60s WALL (       1 calls)
     electrons    :  95357.66s CPU  98524.60s WALL (       1 calls)

     Called by init_run:
     wfcinit      :     37.10s CPU     38.92s WALL (       1 calls)
     wfcinit:atom :      0.10s CPU      0.40s WALL (     251 calls)
     wfcinit:wfcr :   3186.12s CPU   3305.23s WALL (     251 calls)
     potinit      :      1.46s CPU      2.55s WALL (       1 calls)
     hinit0       :      0.72s CPU      0.98s WALL (       1 calls)

     Called by electrons:
     c_bands      :  95357.65s CPU  98524.55s WALL (       1 calls)
     v_of_rho     :      0.71s CPU      1.73s WALL (       1 calls)
     v_h          :      0.01s CPU      0.02s WALL (       1 calls)
     v_xc         :      0.69s CPU      1.72s WALL (       1 calls)
     newd         :      0.79s CPU      0.87s WALL (       1 calls)
     PAW_pot      :      0.57s CPU      0.61s WALL (       1 calls)

     Called by c_bands:
     init_us_2    :      1.19s CPU      1.22s WALL (     502 calls)
     init_us_2:cp :      1.19s CPU      1.22s WALL (     502 calls)
     cegterg      :  92154.44s CPU  95197.13s WALL (    1032 calls)

     Called by sum_band:

     Called by *egterg:
     cdiaghg      :    990.14s CPU   1030.11s WALL (   18095 calls)
     cegterg:over :    571.05s CPU    600.80s WALL (   17844 calls)
     cegterg:upda :    377.35s CPU    393.03s WALL (   17844 calls)
     cegterg:last :    906.78s CPU    932.99s WALL (    7613 calls)
     cdiaghg:chol :     73.00s CPU     74.70s WALL (   18095 calls)
     cdiaghg:inve :     20.18s CPU     20.41s WALL (   18095 calls)
     cdiaghg:para :    201.26s CPU    219.09s WALL (   36190 calls)
     h_psi        :  92005.32s CPU  95041.20s WALL (   19127 calls)
     s_psi        :    358.56s CPU    362.70s WALL (   19378 calls)
     g_psi        :      8.00s CPU      8.17s WALL (   17844 calls)

     Called by h_psi:
     h_psi:calbec :    432.30s CPU    464.34s WALL (   19127 calls)
     vloc_psi     :  90944.02s CPU  93928.80s WALL (   19127 calls)
     add_vuspsi   :    324.94s CPU    335.21s WALL (   19127 calls)
     vhpsi        :    284.92s CPU    292.03s WALL (   19127 calls)

     General routines
     calbec       :    440.42s CPU    473.04s WALL (   19378 calls)
     fft          :      0.28s CPU      0.31s WALL (      27 calls)
     fftw         :  54052.36s CPU  56640.44s WALL ( 7257284 calls)
     davcio       :      0.20s CPU      6.16s WALL (    1004 calls)
 
     Parallel routines

     Hubbard U routines
     vhpsi        :    284.92s CPU    292.03s WALL (   19127 calls)

     PAW routines
     PAW_pot      :      0.57s CPU      0.61s WALL (       1 calls)
 
     PWSCF        :   1d 4h 8m CPU   1d 5h 3m WALL

 
   This run was terminated on:   7:50:23  10Oct2025            

=------------------------------------------------------------------------------=
   JOB DONE.
=------------------------------------------------------------------------------=
