
     Program PWSCF v.7.2 starts on  1Nov2025 at  2:58:24 

     This program is part of the open-source Quantum ESPRESSO suite
     for quantum simulation of materials; please cite
         "P. Giannozzi et al., J. Phys.:Condens. Matter 21 395502 (2009);
         "P. Giannozzi et al., J. Phys.:Condens. Matter 29 465901 (2017);
         "P. Giannozzi et al., J. Chem. Phys. 152 154105 (2020);
          URL http://www.quantum-espresso.org", 
     in publications or presentations arising from this work. More details at
     http://www.quantum-espresso.org/quote

     Parallel version (MPI), running on    64 processors

     MPI processes distributed on     1 nodes
     252111 MiB available memory on the printing compute node when the environment starts
 
     Reading input from MnBi2Te4.scf.in

     Current dimensions of program PWSCF are:
     Max number of different atomic species (ntypx) = 10
     Max number of k-points (npk) =  40000
     Max angular momentum in pseudopotentials (lmaxx) =  4
     Message from routine iosys:
     restart disabled: needed files not found
     file Mn.rel-pbe-spn-kjpaw_psl.0.3.1.UPF: wavefunction(s)  3P 3P 3D renormalized
     file Mn.rel-pbe-spn-kjpaw_psl.0.3.1.UPF: wavefunction(s)  3P 3P 3D renormalized
     file Bi.rel-pbe-dn-kjpaw_psl.1.0.0.UPF: wavefunction(s)  6P 6P 5D 5D renormalized
     file Te.rel-pbe-n-kjpaw_psl.1.0.0.UPF: wavefunction(s)  5S 5P 5P renormalized

     Fixed quantization axis for GGA:     0.000000    0.000000    1.000000
     Message from routine setup:
     using ibrav=0 with symmetry is DISCOURAGED, use correct ibrav instead
 
     R & G space division:  proc/nbgrp/npool/nimage =      64
     Subspace diagonalization in iterative solution of the eigenvalue problem:
     one sub-group per band group will be used
     scalapack distributed-memory algorithm (size of sub-group:  2*  2 procs)

 
     Parallelization info
     --------------------
     sticks:   dense  smooth     PW     G-vecs:    dense   smooth      PW
     Min         126     126     36                 2936     2936     465
     Max         127     127     37                 2938     2938     467
     Sum        8079    8079   2353               187971   187971   29827
 
     Using Slab Decomposition
 


     bravais-lattice index     =            0
     lattice parameter (alat)  =      51.7756  a.u.
     unit-cell volume          =    2994.5793 (a.u.)^3
     number of atoms/cell      =           14
     number of atomic types    =            4
     number of electrons       =       138.00
     number of Kohn-Sham states=          240
     kinetic-energy cutoff     =      60.0000  Ry
     charge density cutoff     =     240.0000  Ry
     scf convergence threshold =      1.0E-07
     mixing beta               =       0.4000
     number of iterations used =            8  local-TF  mixing
     Exchange-correlation= SLA  PW   PBX  PBC
                           (   1   4   3   4   0   0   0)
     Noncollinear calculation with spin-orbit


     celldm(1)=  51.775642  celldm(2)=   0.000000  celldm(3)=   0.000000
     celldm(4)=   0.000000  celldm(5)=   0.000000  celldm(6)=   0.000000

     crystal axes: (cart. coord. in units of alat)
               a(1) = (   0.079085  -0.045660   0.995822 )  
               a(2) = (   0.000000   0.091319   0.995822 )  
               a(3) = (  -0.079085  -0.045660   0.995822 )  

     reciprocal axes: (cart. coord. in units 2 pi/alat)
               b(1) = (  6.322314 -3.650196  0.334731 )  
               b(2) = (  0.000000  7.300392  0.334734 )  
               b(3) = ( -6.322314 -3.650196  0.334731 )  


     PseudoPot. # 1 for Mn read from file:
     ./Mn.rel-pbe-spn-kjpaw_psl.0.3.1.UPF
     MD5 check sum: dfba1c7561257014502ac20495784078
     Pseudo is Projector augmented-wave + core cor, Zval = 15.0
     Generated using &quot;atomic&quot; code by A. Dal Corso  v.6.2.2
     Shape of augmentation charge: PSQ
     Using radial grid of 1187 points, 10 beta functions with: 
                l(1) =   0
                l(2) =   0
                l(3) =   1
                l(4) =   1
                l(5) =   1
                l(6) =   1
                l(7) =   2
                l(8) =   2
                l(9) =   2
               l(10) =   2
     Q(r) pseudized with 0 coefficients 


     PseudoPot. # 2 for Mn read from file:
     ./Mn.rel-pbe-spn-kjpaw_psl.0.3.1.UPF
     MD5 check sum: dfba1c7561257014502ac20495784078
     Pseudo is Projector augmented-wave + core cor, Zval = 15.0
     Generated using &quot;atomic&quot; code by A. Dal Corso  v.6.2.2
     Shape of augmentation charge: PSQ
     Using radial grid of 1187 points, 10 beta functions with: 
                l(1) =   0
                l(2) =   0
                l(3) =   1
                l(4) =   1
                l(5) =   1
                l(6) =   1
                l(7) =   2
                l(8) =   2
                l(9) =   2
               l(10) =   2
     Q(r) pseudized with 0 coefficients 


     PseudoPot. # 3 for Bi read from file:
     ./Bi.rel-pbe-dn-kjpaw_psl.1.0.0.UPF
     MD5 check sum: 8010b987e9fb97324c8de82fb26a3f7d
     Pseudo is Projector augmented-wave + core cor, Zval = 15.0
     Generated using &quot;atomic&quot; code by A. Dal Corso  v.6.2.2
     Shape of augmentation charge: PSQ
     Using radial grid of 1283 points, 10 beta functions with: 
                l(1) =   0
                l(2) =   0
                l(3) =   1
                l(4) =   1
                l(5) =   1
                l(6) =   1
                l(7) =   2
                l(8) =   2
                l(9) =   2
               l(10) =   2
     Q(r) pseudized with 0 coefficients 


     PseudoPot. # 4 for Te read from file:
     ./Te.rel-pbe-n-kjpaw_psl.1.0.0.UPF
     MD5 check sum: 8399411061dffbb19b40ade5049f5146
     Pseudo is Projector augmented-wave + core cor, Zval =  6.0
     Generated using &quot;atomic&quot; code by A. Dal Corso  v.6.3
     Shape of augmentation charge: PSQ
     Using radial grid of 1245 points, 10 beta functions with: 
                l(1) =   0
                l(2) =   0
                l(3) =   1
                l(4) =   1
                l(5) =   1
                l(6) =   1
                l(7) =   2
                l(8) =   2
                l(9) =   2
               l(10) =   2
     Q(r) pseudized with 0 coefficients 


     atomic species   valence    mass     pseudopotential
        Mn1           15.00    54.93800     Mn( 1.00)
        Mn2           15.00    54.93800     Mn( 1.00)
        Bi            15.00   208.98000     Bi( 1.00)
        Te             6.00   127.60300     Te( 1.00)

      2 Sym. Ops. (no inversion) found


                                    s                        frac. trans.

      isym =  1     identity                                     

 Time Reversal            0
 cryst.   s( 1) = (     1          0          0      )
                  (     0          1          0      )
                  (     0          0          1      )

 cart.    s( 1) = (  1.0000000  0.0000000  0.0000000 )
                  (  0.0000000  1.0000000  0.0000000 )
                  (  0.0000000  0.0000000  1.0000000 )


      isym =  2     inv. 180 deg rotation - cart. axis [1,0,0]   

 Time Reversal            1
 cryst.   s( 2) = (     0          0          1      )
                  (     0          1          0      )
                  (     1          0          0      )

 cart.    s( 2) = ( -1.0000000  0.0000000  0.0000000 )
                  (  0.0000000  1.0000000  0.0000000 )
                  (  0.0000000  0.0000000  1.0000000 )


   Cartesian axes

     site n.     atom                  positions (alat units)
         1           Mn1 tau(   1) = (   0.0000000   0.0000000   0.0000000  )
         2           Mn2 tau(   2) = (   0.0000000   0.0000000   1.4937321  )
         3           Bi  tau(   3) = (   0.0000000   0.0000000   0.6350517  )
         4           Bi  tau(   4) = (   0.0000000   0.0000000   2.1280538  )
         5           Bi  tau(   5) = (   0.0000000   0.0000000   0.8586803  )
         6           Bi  tau(   6) = (   0.0000000   0.0000000   2.3531423  )
         7           Te  tau(   7) = (   0.0000000   0.0000000   0.1992041  )
         8           Te  tau(   8) = (   0.0000000   0.0000000   1.6929361  )
         9           Te  tau(   9) = (   0.0000000   0.0000000   1.2945279  )
        10           Te  tau(  10) = (   0.0000000   0.0000000   2.7882600  )
        11           Te  tau(  11) = (   0.0000000   0.0000000   0.4392469  )
        12           Te  tau(  12) = (   0.0000000   0.0000000   1.9329789  )
        13           Te  tau(  13) = (   0.0000000   0.0000000   1.0544852  )
        14           Te  tau(  14) = (   0.0000000   0.0000000   2.5482172  )

     --------------------------------------------
     DFT-D3 Dispersion Correction (3-body terms):
     --------------------------------------------
       Reference C6 values for interpolation: 

         atom   Coordination number   C6
         Mn1        0.000          1605.50
         Mn1        1.641           479.11
         Mn1        9.885           227.69
         Mn2        0.000          1605.50
         Mn2        1.641           479.11
         Mn2        9.885           227.69
         Te         0.000           851.07
         Te         0.981           850.20
         Te         1.964           837.16
         Bi         0.000          1235.06
         Bi         0.982          1188.09
         Bi         1.966          1132.10
         Bi         2.950          1067.76

       Values used:

         atom   Coordination number  R0_AB[au]  C6      C8
         Mn1        3.848            3.351    479.11  48433.79
         Mn2        3.848            3.351    479.11  48433.79
         Bi         5.262            3.890   1067.76 147315.96
         Bi         5.288            3.890   1067.76 147315.96
         Bi         5.262            3.890   1067.76 147315.96
         Bi         5.288            3.890   1067.76 147315.96
         Te         3.319            3.676    837.16  84978.06
         Te         3.337            3.676    837.16  84978.06
         Te         3.319            3.676    837.16  84978.06
         Te         3.337            3.676    837.16  84978.06
         Te         4.259            3.676    837.16  84978.05
         Te         4.216            3.676    837.16  84978.05
         Te         4.259            3.676    837.16  84978.05
         Te         4.216            3.676    837.16  84978.05

         Molecular C6 ( Ry / a.u.^6 ) =    164642.77


   Crystallographic axes

     site n.     atom                  positions (cryst. coord.)
         1           Mn1 tau(   1) = (  0.0000000  0.0000000  0.0000000  )
         2           Mn2 tau(   2) = (  0.4999980  0.5000035  0.4999980  )
         3           Bi  tau(   3) = (  0.2125713  0.2125737  0.2125713  )
         4           Bi  tau(   4) = (  0.7123250  0.7123328  0.7123250  )
         5           Bi  tau(   5) = (  0.2874267  0.2874298  0.2874267  )
         6           Bi  tau(   6) = (  0.7876691  0.7876777  0.7876691  )
         7           Te  tau(   7) = (  0.0666798  0.0666805  0.0666798  )
         8           Te  tau(   8) = (  0.5666778  0.5666840  0.5666778  )
         9           Te  tau(   9) = (  0.4333183  0.4333230  0.4333183  )
        10           Te  tau(  10) = (  0.9333163  0.9333266  0.9333163  )
        11           Te  tau(  11) = (  0.1470294  0.1470310  0.1470294  )
        12           Te  tau(  12) = (  0.6470274  0.6470345  0.6470274  )
        13           Te  tau(  13) = (  0.3529686  0.3529725  0.3529686  )
        14           Te  tau(  14) = (  0.8529666  0.8529760  0.8529666  )

     number of k points=    36  Marzari-Vanderbilt smearing, width (Ry)=  0.0100
                       cart. coord. in units 2pi/alat
        k(    1) = (   0.0000000   0.0000000   0.0000000), wk =   0.0156250
        k(    2) = (  -1.5805784  -0.9125490   0.0836827), wk =   0.0312500
        k(    3) = (   3.1611569   1.8250979  -0.1673654), wk =   0.0312500
        k(    4) = (   0.0000000   1.8250979   0.0836836), wk =   0.0312500
        k(    5) = (  -1.5805784   0.9125490   0.1673663), wk =   0.0312500
        k(    6) = (   3.1611569   3.6501959  -0.0836818), wk =   0.0312500
        k(    7) = (   1.5805784   2.7376469   0.0000009), wk =   0.0312500
        k(    8) = (   0.0000000  -3.6501959  -0.1673672), wk =   0.0156250
        k(    9) = (  -1.5805784  -4.5627449  -0.0836845), wk =   0.0312500
        k(   10) = (   3.1611569  -1.8250979  -0.3347326), wk =   0.0312500
        k(   11) = (   0.0000000  -1.8250979   0.1673654), wk =   0.0312500
        k(   12) = (   4.7417353   0.9125490  -0.0836827), wk =   0.0312500
        k(   13) = (   3.1611569   0.0000000   0.0000000), wk =   0.0156250
        k(   14) = (   0.0000000   0.0000000   0.2510490), wk =   0.0312500
        k(   15) = (   4.7417353   2.7376469   0.0000009), wk =   0.0312500
        k(   16) = (   3.1611569   1.8250979   0.0836836), wk =   0.0312500
        k(   17) = (   0.0000000  -5.4752938  -0.0000018), wk =   0.0312500
        k(   18) = (   4.7417353  -2.7376469  -0.2510499), wk =   0.0312500
        k(   19) = (   3.1611569  -3.6501959  -0.1673672), wk =   0.0156250
        k(   20) = (   0.0000000  -3.6501959   0.0836818), wk =   0.0312500
        k(   21) = (   4.7417353  -0.9125490  -0.1673663), wk =   0.0312500
        k(   22) = (   0.0000000   3.6501959  -0.3347307), wk =   0.0156250
        k(   23) = (   0.0000000   5.4752938  -0.2510471), wk =   0.0312500
        k(   24) = (   0.0000000   0.0000000  -0.5020979), wk =   0.0156250
        k(   25) = (   1.5805784  -0.9125490   0.0836827), wk =   0.0312500
        k(   26) = (   1.5805784   0.9125490   0.1673663), wk =   0.0312500
        k(   27) = (  -3.1611569   3.6501959  -0.0836818), wk =   0.0312500
        k(   28) = (  -1.5805784   2.7376469   0.0000009), wk =   0.0312500
        k(   29) = (   1.5805784  -4.5627449  -0.0836845), wk =   0.0312500
        k(   30) = (  -4.7417353   0.9125490  -0.0836827), wk =   0.0312500
        k(   31) = (  -3.1611569   0.0000000   0.0000000), wk =   0.0156250
        k(   32) = (  -4.7417353   2.7376469   0.0000009), wk =   0.0312500
        k(   33) = (  -3.1611569   1.8250979   0.0836836), wk =   0.0312500
        k(   34) = (  -4.7417353  -2.7376469  -0.2510499), wk =   0.0312500
        k(   35) = (  -3.1611569  -3.6501959  -0.1673672), wk =   0.0156250
        k(   36) = (  -4.7417353  -0.9125490  -0.1673663), wk =   0.0312500

                       cryst. coord.
        k(    1) = (   0.0000000   0.0000000   0.0000000), wk =   0.0156250
        k(    2) = (   0.0000000   0.0000000   0.2500000), wk =   0.0312500
        k(    3) = (  -0.0000000   0.0000000  -0.5000000), wk =   0.0312500
        k(    4) = (   0.0000000   0.2500000   0.0000000), wk =   0.0312500
        k(    5) = (   0.0000000   0.2500000   0.2500000), wk =   0.0312500
        k(    6) = (  -0.0000000   0.2500000  -0.5000000), wk =   0.0312500
        k(    7) = (  -0.0000000   0.2500000  -0.2500000), wk =   0.0312500
        k(    8) = (   0.0000000  -0.5000000   0.0000000), wk =   0.0156250
        k(    9) = (   0.0000000  -0.5000000   0.2500000), wk =   0.0312500
        k(   10) = (  -0.0000000  -0.5000000  -0.5000000), wk =   0.0312500
        k(   11) = (   0.2500000   0.0000000   0.2500000), wk =   0.0312500
        k(   12) = (   0.2500000   0.0000000  -0.5000000), wk =   0.0312500
        k(   13) = (   0.2500000   0.0000000  -0.2500000), wk =   0.0156250
        k(   14) = (   0.2500000   0.2500000   0.2500000), wk =   0.0312500
        k(   15) = (   0.2500000   0.2500000  -0.5000000), wk =   0.0312500
        k(   16) = (   0.2500000   0.2500000  -0.2500000), wk =   0.0312500
        k(   17) = (   0.2500000  -0.5000000   0.2500000), wk =   0.0312500
        k(   18) = (   0.2500000  -0.5000000  -0.5000000), wk =   0.0312500
        k(   19) = (   0.2500000  -0.5000000  -0.2500000), wk =   0.0156250
        k(   20) = (   0.2500000  -0.2500000   0.2500000), wk =   0.0312500
        k(   21) = (   0.2500000  -0.2500000  -0.5000000), wk =   0.0312500
        k(   22) = (  -0.5000000   0.0000000  -0.5000000), wk =   0.0156250
        k(   23) = (  -0.5000000   0.2500000  -0.5000000), wk =   0.0312500
        k(   24) = (  -0.5000000  -0.5000000  -0.5000000), wk =   0.0156250
        k(   25) = (   0.2500000   0.0000000   0.0000000), wk =   0.0312500
        k(   26) = (   0.2500000   0.2500000   0.0000000), wk =   0.0312500
        k(   27) = (  -0.5000000   0.2500000  -0.0000000), wk =   0.0312500
        k(   28) = (  -0.2500000   0.2500000  -0.0000000), wk =   0.0312500
        k(   29) = (   0.2500000  -0.5000000   0.0000000), wk =   0.0312500
        k(   30) = (  -0.5000000  -0.0000000   0.2500000), wk =   0.0312500
        k(   31) = (  -0.2500000   0.0000000   0.2500000), wk =   0.0156250
        k(   32) = (  -0.5000000   0.2500000   0.2500000), wk =   0.0312500
        k(   33) = (  -0.2500000   0.2500000   0.2500000), wk =   0.0312500
        k(   34) = (  -0.5000000  -0.5000000   0.2500000), wk =   0.0312500
        k(   35) = (  -0.2500000  -0.5000000   0.2500000), wk =   0.0156250
        k(   36) = (  -0.5000000  -0.2500000   0.2500000), wk =   0.0312500

     Dense  grid:   187971 G-vectors     FFT dimensions: ( 256, 256, 256)

     Dynamical RAM for                 wfc:       2.69 MB

     Dynamical RAM for     wfc (w. buffer):      99.46 MB

     Dynamical RAM for           str. fact:       0.18 MB

     Dynamical RAM for           local pot:       0.00 MB

     Dynamical RAM for          nlocal pot:       2.67 MB

     Dynamical RAM for                qrad:      13.03 MB

     Dynamical RAM for          rho,v,vnew:      24.54 MB

     Dynamical RAM for               rhoin:       8.18 MB

     Dynamical RAM for            rho*nmix:       2.87 MB

     Dynamical RAM for           G-vectors:       0.19 MB

     Dynamical RAM for          h,s,v(r/c):       2.64 MB

     Dynamical RAM for          <psi|beta>:       3.49 MB

     Dynamical RAM for                 psi:       5.38 MB

     Dynamical RAM for                hpsi:       5.38 MB

     Dynamical RAM for                spsi:       5.38 MB

     Dynamical RAM for      wfcinit/wfcrot:       5.35 MB

     Dynamical RAM for           addusdens:      27.83 MB

     Dynamical RAM for          addusforce:      28.85 MB

     Estimated static dynamical RAM per process >     164.47 MB

     Estimated max dynamical RAM per process >     196.18 MB

     Estimated total dynamical RAM >      12.26 GB

     Check: negative core charge=   -0.000015
     Generating pointlists ...
     new r_m :   0.0448 (alat units)  2.3181 (a.u.) for type    1
     new r_m :   0.0448 (alat units)  2.3181 (a.u.) for type    2
     new r_m :   0.0455 (alat units)  2.3581 (a.u.) for type    3
     new r_m :   0.0448 (alat units)  2.3181 (a.u.) for type    4
     Cannot read rho : file not found

     Initial potential from superposition of free atoms

     starting charge     137.9938, renormalised to     138.0000

 ==============================================================================
     atom number    1 relative position :    0.0000   0.0000   0.0000
     charge :    13.702605  (integrated on a sphere of radius 0.045)
     magnetization :          0.000000    0.000000    4.474666
     magnetization/charge:    0.000000    0.000000    0.326556
     polar coord.: r, theta, phi [deg] :     4.474666    0.000000  360.000000

 ==============================================================================

 ==============================================================================
     atom number    2 relative position :    0.0000   0.0000   1.4937
     charge :    13.702609  (integrated on a sphere of radius 0.045)
     magnetization :          0.000000    0.000000   -4.474666
     magnetization/charge:    0.000000    0.000000   -0.326556
     polar coord.: r, theta, phi [deg] :     4.474666  180.000000  360.000000

 ==============================================================================

 ==============================================================================
     atom number    3 relative position :    0.0000   0.0000   0.6351
     charge :    12.822907  (integrated on a sphere of radius 0.046)
     magnetization :          0.000000    0.000000   -0.000757
     magnetization/charge:    0.000000    0.000000   -0.000059
     polar coord.: r, theta, phi [deg] :     0.000757  180.000000  360.000000

 ==============================================================================

 ==============================================================================
     atom number    4 relative position :    0.0000   0.0000   2.1281
     charge :    12.820920  (integrated on a sphere of radius 0.046)
     magnetization :         -0.000000    0.000000    0.000791
     magnetization/charge:   -0.000000    0.000000    0.000062
     polar coord.: r, theta, phi [deg] :     0.000791    0.000000  360.000000

 ==============================================================================

 ==============================================================================
     atom number    5 relative position :    0.0000   0.0000   0.8587
     charge :    12.822906  (integrated on a sphere of radius 0.046)
     magnetization :         -0.000000    0.000000    0.000757
     magnetization/charge:   -0.000000    0.000000    0.000059
     polar coord.: r, theta, phi [deg] :     0.000757    0.000000  360.000000

 ==============================================================================

 ==============================================================================
     atom number    6 relative position :    0.0000   0.0000   2.3531
     charge :    12.820923  (integrated on a sphere of radius 0.046)
     magnetization :          0.000000    0.000000   -0.000791
     magnetization/charge:    0.000000    0.000000   -0.000062
     polar coord.: r, theta, phi [deg] :     0.000791  180.000000  360.000000

 ==============================================================================

 ==============================================================================
     atom number    7 relative position :    0.0000   0.0000   0.1992
     charge :     3.752835  (integrated on a sphere of radius 0.045)
     magnetization :         -0.000000    0.000000    0.000018
     magnetization/charge:   -0.000000    0.000000    0.000005
     polar coord.: r, theta, phi [deg] :     0.000018    0.000000  360.000000

 ==============================================================================

 ==============================================================================
     atom number    8 relative position :    0.0000   0.0000   1.6929
     charge :     3.756629  (integrated on a sphere of radius 0.045)
     magnetization :          0.000000    0.000000   -0.000018
     magnetization/charge:    0.000000    0.000000   -0.000005
     polar coord.: r, theta, phi [deg] :     0.000018  180.000000  360.000000

 ==============================================================================

 ==============================================================================
     atom number    9 relative position :    0.0000   0.0000   1.2945
     charge :     3.752839  (integrated on a sphere of radius 0.045)
     magnetization :          0.000000    0.000000   -0.000018
     magnetization/charge:    0.000000    0.000000   -0.000005
     polar coord.: r, theta, phi [deg] :     0.000018  180.000000  360.000000

 ==============================================================================

 ==============================================================================
     atom number   10 relative position :    0.0000   0.0000   2.7883
     charge :     3.756625  (integrated on a sphere of radius 0.045)
     magnetization :         -0.000000    0.000000    0.000018
     magnetization/charge:   -0.000000    0.000000    0.000005
     polar coord.: r, theta, phi [deg] :     0.000018    0.000000  360.000000

 ==============================================================================

 ==============================================================================
     atom number   11 relative position :    0.0000   0.0000   0.4392
     charge :     3.789468  (integrated on a sphere of radius 0.045)
     magnetization :          0.000000    0.000000   -0.035316
     magnetization/charge:    0.000000    0.000000   -0.009320
     polar coord.: r, theta, phi [deg] :     0.035316  180.000000  360.000000

 ==============================================================================

 ==============================================================================
     atom number   12 relative position :    0.0000   0.0000   1.9330
     charge :     3.787375  (integrated on a sphere of radius 0.045)
     magnetization :         -0.000000    0.000000    0.035315
     magnetization/charge:   -0.000000    0.000000    0.009324
     polar coord.: r, theta, phi [deg] :     0.035315    0.000000  360.000000

 ==============================================================================

 ==============================================================================
     atom number   13 relative position :    0.0000   0.0000   1.0545
     charge :     3.789470  (integrated on a sphere of radius 0.045)
     magnetization :         -0.000000    0.000000    0.035316
     magnetization/charge:   -0.000000    0.000000    0.009320
     polar coord.: r, theta, phi [deg] :     0.035316    0.000000  360.000000

 ==============================================================================

 ==============================================================================
     atom number   14 relative position :    0.0000   0.0000   2.5482
     charge :     3.787377  (integrated on a sphere of radius 0.045)
     magnetization :          0.000000    0.000000   -0.035316
     magnetization/charge:    0.000000    0.000000   -0.009325
     polar coord.: r, theta, phi [deg] :     0.035316  180.000000  360.000000

 ==============================================================================
     Message from routine qexsd_readschema :
     xml data file ./tmp/MnBi2Te4.save/data-file-schema.xml not found
     Cannot read wfcs: file not found
     Starting wfcs are  176 randomized atomic wfcs +   64 random wfcs
     Checking if some PAW data can be deallocated... 
       PAW data deallocated on   59 nodes for type:  1
       PAW data deallocated on   59 nodes for type:  2
       PAW data deallocated on   44 nodes for type:  3
       PAW data deallocated on   30 nodes for type:  4

     total cpu time spent up to now is      152.4 secs

     Self-consistent Calculation

     iteration #  1     ecut=    60.00 Ry     beta= 0.40
     Davidson diagonalization with overlap

---- Real-time Memory Report at c_bands before calling an iterative solver
           334 MiB given to the printing process from OS
             0 MiB allocation reported by mallinfo(arena+hblkhd)
        235635 MiB available memory on the node where the printing process lives
------------------
     c_bands:  4 eigenvalues not converged
     c_bands:  1 eigenvalues not converged
     c_bands:  2 eigenvalues not converged
     c_bands:  2 eigenvalues not converged
     c_bands:  1 eigenvalues not converged
     c_bands:  4 eigenvalues not converged
     c_bands:  2 eigenvalues not converged
     c_bands:  3 eigenvalues not converged
     c_bands:  2 eigenvalues not converged
     c_bands:  2 eigenvalues not converged
     c_bands:  2 eigenvalues not converged
     c_bands:  1 eigenvalues not converged
     c_bands:  4 eigenvalues not converged
     c_bands:  4 eigenvalues not converged
     c_bands:  2 eigenvalues not converged
     c_bands:  3 eigenvalues not converged
     c_bands:  2 eigenvalues not converged
     c_bands:  3 eigenvalues not converged
     c_bands:  2 eigenvalues not converged
     c_bands:  2 eigenvalues not converged
     c_bands:  2 eigenvalues not converged
     c_bands:  1 eigenvalues not converged
     ethr =  1.00E-05,  avg # of iterations = 23.1

 ==============================================================================
     atom number    1 relative position :    0.0000   0.0000   0.0000
     charge :    13.708899  (integrated on a sphere of radius 0.045)
     magnetization :         -0.000000   -0.000000    4.303461
     magnetization/charge:   -0.000000   -0.000000    0.313917
     polar coord.: r, theta, phi [deg] :     4.303461    0.000006  -90.000000

 ==============================================================================

 ==============================================================================
     atom number    2 relative position :    0.0000   0.0000   1.4937
     charge :    13.708904  (integrated on a sphere of radius 0.045)
     magnetization :          0.000000   -0.000001   -4.303452
     magnetization/charge:    0.000000   -0.000000   -0.313917
     polar coord.: r, theta, phi [deg] :     4.303452  179.999988  -90.000000

 ==============================================================================

 ==============================================================================
     atom number    3 relative position :    0.0000   0.0000   0.6351
     charge :    12.769941  (integrated on a sphere of radius 0.046)
     magnetization :          0.000000   -0.000000   -0.006268
     magnetization/charge:    0.000000   -0.000000   -0.000491
     polar coord.: r, theta, phi [deg] :     0.006268  179.998318  -90.000000

 ==============================================================================

 ==============================================================================
     atom number    4 relative position :    0.0000   0.0000   2.1281
     charge :    12.767424  (integrated on a sphere of radius 0.046)
     magnetization :          0.000000   -0.000000    0.006482
     magnetization/charge:    0.000000   -0.000000    0.000508
     polar coord.: r, theta, phi [deg] :     0.006482    0.002849  -90.000000

 ==============================================================================

 ==============================================================================
     atom number    5 relative position :    0.0000   0.0000   0.8587
     charge :    12.769938  (integrated on a sphere of radius 0.046)
     magnetization :         -0.000000    0.000001    0.006268
     magnetization/charge:   -0.000000    0.000000    0.000491
     polar coord.: r, theta, phi [deg] :     0.006268    0.004635   90.000000

 ==============================================================================

 ==============================================================================
     atom number    6 relative position :    0.0000   0.0000   2.3531
     charge :    12.767426  (integrated on a sphere of radius 0.046)
     magnetization :          0.000000   -0.000000   -0.006482
     magnetization/charge:    0.000000   -0.000000   -0.000508
     polar coord.: r, theta, phi [deg] :     0.006482  179.999210  -90.000000

 ==============================================================================

 ==============================================================================
     atom number    7 relative position :    0.0000   0.0000   0.1992
     charge :     3.766603  (integrated on a sphere of radius 0.045)
     magnetization :          0.000000    0.000000    0.017872
     magnetization/charge:    0.000000    0.000000    0.004745
     polar coord.: r, theta, phi [deg] :     0.017872    0.000944   90.000000

 ==============================================================================

 ==============================================================================
     atom number    8 relative position :    0.0000   0.0000   1.6929
     charge :     3.770254  (integrated on a sphere of radius 0.045)
     magnetization :         -0.000000    0.000000   -0.017431
     magnetization/charge:   -0.000000    0.000000   -0.004623
     polar coord.: r, theta, phi [deg] :     0.017431  179.999882   90.000000

 ==============================================================================

 ==============================================================================
     atom number    9 relative position :    0.0000   0.0000   1.2945
     charge :     3.766607  (integrated on a sphere of radius 0.045)
     magnetization :          0.000000    0.000000   -0.017873
     magnetization/charge:    0.000000    0.000000   -0.004745
     polar coord.: r, theta, phi [deg] :     0.017873  179.999983   90.000000

 ==============================================================================

 ==============================================================================
     atom number   10 relative position :    0.0000   0.0000   2.7883
     charge :     3.770251  (integrated on a sphere of radius 0.045)
     magnetization :          0.000000   -0.000001    0.017432
     magnetization/charge:    0.000000   -0.000000    0.004624
     polar coord.: r, theta, phi [deg] :     0.017432    0.001958  -90.000000

 ==============================================================================

 ==============================================================================
     atom number   11 relative position :    0.0000   0.0000   0.4392
     charge :     3.806132  (integrated on a sphere of radius 0.045)
     magnetization :          0.000000   -0.000000   -0.062316
     magnetization/charge:    0.000000   -0.000000   -0.016373
     polar coord.: r, theta, phi [deg] :     0.062316  179.999809  -90.000000

 ==============================================================================

 ==============================================================================
     atom number   12 relative position :    0.0000   0.0000   1.9330
     charge :     3.804290  (integrated on a sphere of radius 0.045)
     magnetization :          0.000000   -0.000000    0.062958
     magnetization/charge:    0.000000   -0.000000    0.016549
     polar coord.: r, theta, phi [deg] :     0.062958    0.000219  -90.000000

 ==============================================================================

 ==============================================================================
     atom number   13 relative position :    0.0000   0.0000   1.0545
     charge :     3.806135  (integrated on a sphere of radius 0.045)
     magnetization :          0.000000    0.000000    0.062317
     magnetization/charge:    0.000000    0.000000    0.016373
     polar coord.: r, theta, phi [deg] :     0.062317    0.000257   90.000000

 ==============================================================================

 ==============================================================================
     atom number   14 relative position :    0.0000   0.0000   2.5482
     charge :     3.804291  (integrated on a sphere of radius 0.045)
     magnetization :          0.000000    0.000000   -0.062958
     magnetization/charge:    0.000000    0.000000   -0.016549
     polar coord.: r, theta, phi [deg] :     0.062958  179.999901   90.000000

 ==============================================================================

     total cpu time spent up to now is     1898.5 secs

     total energy              =   -7140.69677064 Ry
     estimated scf accuracy    <       1.41760026 Ry

     total magnetization       =    -0.00    -0.00     0.00 Bohr mag/cell
     absolute magnetization    =     9.50 Bohr mag/cell

     iteration #  2     ecut=    60.00 Ry     beta= 0.40
     Davidson diagonalization with overlap

---- Real-time Memory Report at c_bands before calling an iterative solver
           486 MiB given to the printing process from OS
             0 MiB allocation reported by mallinfo(arena+hblkhd)
        229861 MiB available memory on the node where the printing process lives
------------------
     ethr =  1.03E-03,  avg # of iterations =  1.0

 ==============================================================================
     atom number    1 relative position :    0.0000   0.0000   0.0000
     charge :    13.686667  (integrated on a sphere of radius 0.045)
     magnetization :          0.000000   -0.000001    4.312880
     magnetization/charge:    0.000000   -0.000000    0.315115
     polar coord.: r, theta, phi [deg] :     4.312880    0.000018  -90.000000

 ==============================================================================

 ==============================================================================
     atom number    2 relative position :    0.0000   0.0000   1.4937
     charge :    13.686671  (integrated on a sphere of radius 0.045)
     magnetization :          0.000000   -0.000001   -4.312871
     magnetization/charge:    0.000000   -0.000000   -0.315115
     polar coord.: r, theta, phi [deg] :     4.312871  179.999985  -90.000000

 ==============================================================================

 ==============================================================================
     atom number    3 relative position :    0.0000   0.0000   0.6351
     charge :    12.708880  (integrated on a sphere of radius 0.046)
     magnetization :          0.000000    0.000000   -0.011787
     magnetization/charge:    0.000000    0.000000   -0.000927
     polar coord.: r, theta, phi [deg] :     0.011787  179.998367   90.000000

 ==============================================================================

 ==============================================================================
     atom number    4 relative position :    0.0000   0.0000   2.1281
     charge :    12.705881  (integrated on a sphere of radius 0.046)
     magnetization :         -0.000000   -0.000001    0.012179
     magnetization/charge:   -0.000000   -0.000000    0.000959
     polar coord.: r, theta, phi [deg] :     0.012179    0.002575  -90.000000

 ==============================================================================

 ==============================================================================
     atom number    5 relative position :    0.0000   0.0000   0.8587
     charge :    12.708876  (integrated on a sphere of radius 0.046)
     magnetization :          0.000000    0.000000    0.011787
     magnetization/charge:    0.000000    0.000000    0.000927
     polar coord.: r, theta, phi [deg] :     0.011787    0.001297   90.000000

 ==============================================================================

 ==============================================================================
     atom number    6 relative position :    0.0000   0.0000   2.3531
     charge :    12.705884  (integrated on a sphere of radius 0.046)
     magnetization :         -0.000000   -0.000000   -0.012179
     magnetization/charge:   -0.000000   -0.000000   -0.000959
     polar coord.: r, theta, phi [deg] :     0.012179  179.997841  -90.000000

 ==============================================================================

 ==============================================================================
     atom number    7 relative position :    0.0000   0.0000   0.1992
     charge :     3.784389  (integrated on a sphere of radius 0.045)
     magnetization :          0.000000   -0.000000    0.029022
     magnetization/charge:    0.000000   -0.000000    0.007669
     polar coord.: r, theta, phi [deg] :     0.029022    0.000821  -90.000000

 ==============================================================================

 ==============================================================================
     atom number    8 relative position :    0.0000   0.0000   1.6929
     charge :     3.787811  (integrated on a sphere of radius 0.045)
     magnetization :          0.000000    0.000000   -0.028248
     magnetization/charge:    0.000000    0.000000   -0.007457
     polar coord.: r, theta, phi [deg] :     0.028248  179.999481   90.000000

 ==============================================================================

 ==============================================================================
     atom number    9 relative position :    0.0000   0.0000   1.2945
     charge :     3.784393  (integrated on a sphere of radius 0.045)
     magnetization :          0.000000    0.000001   -0.029024
     magnetization/charge:    0.000000    0.000000   -0.007670
     polar coord.: r, theta, phi [deg] :     0.029024  179.998193   90.000000

 ==============================================================================

 ==============================================================================
     atom number   10 relative position :    0.0000   0.0000   2.7883
     charge :     3.787808  (integrated on a sphere of radius 0.045)
     magnetization :         -0.000000   -0.000001    0.028247
     magnetization/charge:   -0.000000   -0.000000    0.007457
     polar coord.: r, theta, phi [deg] :     0.028247    0.001693  -90.000000

 ==============================================================================

 ==============================================================================
     atom number   11 relative position :    0.0000   0.0000   0.4392
     charge :     3.834973  (integrated on a sphere of radius 0.045)
     magnetization :          0.000000    0.000000   -0.061352
     magnetization/charge:    0.000000    0.000000   -0.015998
     polar coord.: r, theta, phi [deg] :     0.061352  179.999866   90.000000

 ==============================================================================

 ==============================================================================
     atom number   12 relative position :    0.0000   0.0000   1.9330
     charge :     3.833474  (integrated on a sphere of radius 0.045)
     magnetization :          0.000000   -0.000000    0.062420
     magnetization/charge:    0.000000   -0.000000    0.016283
     polar coord.: r, theta, phi [deg] :     0.062420    0.000409  -90.000000

 ==============================================================================

 ==============================================================================
     atom number   13 relative position :    0.0000   0.0000   1.0545
     charge :     3.834975  (integrated on a sphere of radius 0.045)
     magnetization :          0.000000    0.000000    0.061352
     magnetization/charge:    0.000000    0.000000    0.015998
     polar coord.: r, theta, phi [deg] :     0.061352    0.000190   90.000000

 ==============================================================================

 ==============================================================================
     atom number   14 relative position :    0.0000   0.0000   2.5482
     charge :     3.833476  (integrated on a sphere of radius 0.045)
     magnetization :          0.000000    0.000001   -0.062421
     magnetization/charge:    0.000000    0.000000   -0.016283
     polar coord.: r, theta, phi [deg] :     0.062421  179.999441   90.000000

 ==============================================================================

     total cpu time spent up to now is     2437.4 secs

     total energy              =   -7140.71677684 Ry
     estimated scf accuracy    <       0.35449677 Ry

     total magnetization       =    -0.00    -0.00    -0.00 Bohr mag/cell
     absolute magnetization    =     9.84 Bohr mag/cell

     iteration #  3     ecut=    60.00 Ry     beta= 0.40
     Davidson diagonalization with overlap

---- Real-time Memory Report at c_bands before calling an iterative solver
           488 MiB given to the printing process from OS
             0 MiB allocation reported by mallinfo(arena+hblkhd)
        229887 MiB available memory on the node where the printing process lives
------------------
     ethr =  2.57E-04,  avg # of iterations =  1.8

 ==============================================================================
     atom number    1 relative position :    0.0000   0.0000   0.0000
     charge :    13.659683  (integrated on a sphere of radius 0.045)
     magnetization :         -0.000000   -0.000002    4.339937
     magnetization/charge:   -0.000000   -0.000000    0.317719
     polar coord.: r, theta, phi [deg] :     4.339937    0.000027  -90.000000

 ==============================================================================

 ==============================================================================
     atom number    2 relative position :    0.0000   0.0000   1.4937
     charge :    13.659686  (integrated on a sphere of radius 0.045)
     magnetization :         -0.000000   -0.000001   -4.339929
     magnetization/charge:   -0.000000   -0.000000   -0.317718
     polar coord.: r, theta, phi [deg] :     4.339929  179.999990  -90.000000

 ==============================================================================

 ==============================================================================
     atom number    3 relative position :    0.0000   0.0000   0.6351
     charge :    12.631958  (integrated on a sphere of radius 0.046)
     magnetization :          0.000000    0.000001   -0.019769
     magnetization/charge:    0.000000    0.000000   -0.001565
     polar coord.: r, theta, phi [deg] :     0.019769  179.997084   90.000000

 ==============================================================================

 ==============================================================================
     atom number    4 relative position :    0.0000   0.0000   2.1281
     charge :    12.628566  (integrated on a sphere of radius 0.046)
     magnetization :         -0.000000   -0.000001    0.020295
     magnetization/charge:   -0.000000   -0.000000    0.001607
     polar coord.: r, theta, phi [deg] :     0.020295    0.001547  -90.000000

 ==============================================================================

 ==============================================================================
     atom number    5 relative position :    0.0000   0.0000   0.8587
     charge :    12.631954  (integrated on a sphere of radius 0.046)
     magnetization :         -0.000000    0.000000    0.019770
     magnetization/charge:   -0.000000    0.000000    0.001565
     polar coord.: r, theta, phi [deg] :     0.019770    0.000427   90.000000

 ==============================================================================

 ==============================================================================
     atom number    6 relative position :    0.0000   0.0000   2.3531
     charge :    12.628570  (integrated on a sphere of radius 0.046)
     magnetization :          0.000000   -0.000000   -0.020294
     magnetization/charge:    0.000000   -0.000000   -0.001607
     polar coord.: r, theta, phi [deg] :     0.020294  179.998953  -90.000000

 ==============================================================================

 ==============================================================================
     atom number    7 relative position :    0.0000   0.0000   0.1992
     charge :     3.799739  (integrated on a sphere of radius 0.045)
     magnetization :          0.000000   -0.000001    0.044388
     magnetization/charge:    0.000000   -0.000000    0.011682
     polar coord.: r, theta, phi [deg] :     0.044388    0.001384  -90.000000

 ==============================================================================

 ==============================================================================
     atom number    8 relative position :    0.0000   0.0000   1.6929
     charge :     3.803620  (integrated on a sphere of radius 0.045)
     magnetization :         -0.000000   -0.000000   -0.043181
     magnetization/charge:   -0.000000   -0.000000   -0.011353
     polar coord.: r, theta, phi [deg] :     0.043181  179.999388  -90.000000

 ==============================================================================

 ==============================================================================
     atom number    9 relative position :    0.0000   0.0000   1.2945
     charge :     3.799744  (integrated on a sphere of radius 0.045)
     magnetization :          0.000000   -0.000000   -0.044390
     magnetization/charge:    0.000000   -0.000000   -0.011682
     polar coord.: r, theta, phi [deg] :     0.044390  179.999528  -90.000000

 ==============================================================================

 ==============================================================================
     atom number   10 relative position :    0.0000   0.0000   2.7883
     charge :     3.803616  (integrated on a sphere of radius 0.045)
     magnetization :          0.000000   -0.000001    0.043180
     magnetization/charge:    0.000000   -0.000000    0.011352
     polar coord.: r, theta, phi [deg] :     0.043180    0.001047  -90.000000

 ==============================================================================

 ==============================================================================
     atom number   11 relative position :    0.0000   0.0000   0.4392
     charge :     3.866513  (integrated on a sphere of radius 0.045)
     magnetization :         -0.000000    0.000000   -0.045042
     magnetization/charge:   -0.000000    0.000000   -0.011649
     polar coord.: r, theta, phi [deg] :     0.045042  179.999686   90.000000

 ==============================================================================

 ==============================================================================
     atom number   12 relative position :    0.0000   0.0000   1.9330
     charge :     3.865275  (integrated on a sphere of radius 0.045)
     magnetization :          0.000000   -0.000000    0.046499
     magnetization/charge:    0.000000   -0.000000    0.012030
     polar coord.: r, theta, phi [deg] :     0.046499    0.000595  -90.000000

 ==============================================================================

 ==============================================================================
     atom number   13 relative position :    0.0000   0.0000   1.0545
     charge :     3.866515  (integrated on a sphere of radius 0.045)
     magnetization :          0.000000   -0.000001    0.045041
     magnetization/charge:    0.000000   -0.000000    0.011649
     polar coord.: r, theta, phi [deg] :     0.045041    0.000844  -90.000000

 ==============================================================================

 ==============================================================================
     atom number   14 relative position :    0.0000   0.0000   2.5482
     charge :     3.865277  (integrated on a sphere of radius 0.045)
     magnetization :         -0.000000    0.000001   -0.046500
     magnetization/charge:   -0.000000    0.000000   -0.012030
     polar coord.: r, theta, phi [deg] :     0.046500  179.998614   90.000000

 ==============================================================================

     total cpu time spent up to now is     2889.0 secs

     total energy              =   -7140.70186433 Ry
     estimated scf accuracy    <       0.12483755 Ry

     total magnetization       =    -0.00    -0.00    -0.00 Bohr mag/cell
     absolute magnetization    =     9.86 Bohr mag/cell

     iteration #  4     ecut=    60.00 Ry     beta= 0.40
     Davidson diagonalization with overlap

---- Real-time Memory Report at c_bands before calling an iterative solver
           488 MiB given to the printing process from OS
             0 MiB allocation reported by mallinfo(arena+hblkhd)
        229864 MiB available memory on the node where the printing process lives
------------------
     ethr =  9.05E-05,  avg # of iterations =  8.5

 ==============================================================================
     atom number    1 relative position :    0.0000   0.0000   0.0000
     charge :    13.663348  (integrated on a sphere of radius 0.045)
     magnetization :         -0.000000   -0.000003    4.333210
     magnetization/charge:   -0.000000   -0.000000    0.317141
     polar coord.: r, theta, phi [deg] :     4.333210    0.000043  -90.000000

 ==============================================================================

 ==============================================================================
     atom number    2 relative position :    0.0000   0.0000   1.4937
     charge :    13.663350  (integrated on a sphere of radius 0.045)
     magnetization :         -0.000000    0.000000   -4.333203
     magnetization/charge:   -0.000000    0.000000   -0.317141
     polar coord.: r, theta, phi [deg] :     4.333203  179.999996   90.000000

 ==============================================================================

 ==============================================================================
     atom number    3 relative position :    0.0000   0.0000   0.6351
     charge :    12.634371  (integrated on a sphere of radius 0.046)
     magnetization :         -0.000000   -0.000000   -0.020606
     magnetization/charge:   -0.000000   -0.000000   -0.001631
     polar coord.: r, theta, phi [deg] :     0.020606  179.998867  -90.000000

 ==============================================================================

 ==============================================================================
     atom number    4 relative position :    0.0000   0.0000   2.1281
     charge :    12.631208  (integrated on a sphere of radius 0.046)
     magnetization :         -0.000000    0.000000    0.020951
     magnetization/charge:   -0.000000    0.000000    0.001659
     polar coord.: r, theta, phi [deg] :     0.020951    0.000151   90.000000

 ==============================================================================

 ==============================================================================
     atom number    5 relative position :    0.0000   0.0000   0.8587
     charge :    12.634367  (integrated on a sphere of radius 0.046)
     magnetization :          0.000000   -0.000001    0.020609
     magnetization/charge:    0.000000   -0.000000    0.001631
     polar coord.: r, theta, phi [deg] :     0.020609    0.003079  -90.000000

 ==============================================================================

 ==============================================================================
     atom number    6 relative position :    0.0000   0.0000   2.3531
     charge :    12.631211  (integrated on a sphere of radius 0.046)
     magnetization :          0.000000   -0.000000   -0.020947
     magnetization/charge:    0.000000   -0.000000   -0.001658
     polar coord.: r, theta, phi [deg] :     0.020947  179.999699  -90.000000

 ==============================================================================

 ==============================================================================
     atom number    7 relative position :    0.0000   0.0000   0.1992
     charge :     3.794164  (integrated on a sphere of radius 0.045)
     magnetization :          0.000000   -0.000006    0.046959
     magnetization/charge:    0.000000   -0.000002    0.012377
     polar coord.: r, theta, phi [deg] :     0.046959    0.007014  -90.000000

 ==============================================================================

 ==============================================================================
     atom number    8 relative position :    0.0000   0.0000   1.6929
     charge :     3.798921  (integrated on a sphere of radius 0.045)
     magnetization :         -0.000000   -0.000003   -0.045816
     magnetization/charge:   -0.000000   -0.000001   -0.012060
     polar coord.: r, theta, phi [deg] :     0.045816  179.995803  -90.000000

 ==============================================================================

 ==============================================================================
     atom number    9 relative position :    0.0000   0.0000   1.2945
     charge :     3.794169  (integrated on a sphere of radius 0.045)
     magnetization :         -0.000000   -0.000001   -0.046960
     magnetization/charge:   -0.000000   -0.000000   -0.012377
     polar coord.: r, theta, phi [deg] :     0.046960  179.998217  -90.000000

 ==============================================================================

 ==============================================================================
     atom number   10 relative position :    0.0000   0.0000   2.7883
     charge :     3.798916  (integrated on a sphere of radius 0.045)
     magnetization :          0.000000    0.000001    0.045816
     magnetization/charge:    0.000000    0.000000    0.012060
     polar coord.: r, theta, phi [deg] :     0.045816    0.000993   90.000000

 ==============================================================================

 ==============================================================================
     atom number   11 relative position :    0.0000   0.0000   0.4392
     charge :     3.855922  (integrated on a sphere of radius 0.045)
     magnetization :         -0.000000    0.000001   -0.028140
     magnetization/charge:   -0.000000    0.000000   -0.007298
     polar coord.: r, theta, phi [deg] :     0.028140  179.998459   90.000000

 ==============================================================================

 ==============================================================================
     atom number   12 relative position :    0.0000   0.0000   1.9330
     charge :     3.854210  (integrated on a sphere of radius 0.045)
     magnetization :          0.000000    0.000000    0.028883
     magnetization/charge:    0.000000    0.000000    0.007494
     polar coord.: r, theta, phi [deg] :     0.028883    0.000608   90.000000

 ==============================================================================

 ==============================================================================
     atom number   13 relative position :    0.0000   0.0000   1.0545
     charge :     3.855925  (integrated on a sphere of radius 0.045)
     magnetization :         -0.000000    0.000001    0.028139
     magnetization/charge:   -0.000000    0.000000    0.007298
     polar coord.: r, theta, phi [deg] :     0.028139    0.001073   90.000000

 ==============================================================================

 ==============================================================================
     atom number   14 relative position :    0.0000   0.0000   2.5482
     charge :     3.854211  (integrated on a sphere of radius 0.045)
     magnetization :          0.000000    0.000002   -0.028885
     magnetization/charge:    0.000000    0.000000   -0.007494
     polar coord.: r, theta, phi [deg] :     0.028885  179.996208   90.000000

 ==============================================================================

     total cpu time spent up to now is     3513.9 secs

     total energy              =   -7140.71517564 Ry
     estimated scf accuracy    <       0.00770734 Ry

     total magnetization       =    -0.00    -0.00     0.00 Bohr mag/cell
     absolute magnetization    =     9.86 Bohr mag/cell

     iteration #  5     ecut=    60.00 Ry     beta= 0.40
     Davidson diagonalization with overlap

---- Real-time Memory Report at c_bands before calling an iterative solver
           511 MiB given to the printing process from OS
             0 MiB allocation reported by mallinfo(arena+hblkhd)
        229322 MiB available memory on the node where the printing process lives
------------------
     ethr =  5.59E-06,  avg # of iterations =  8.9

 ==============================================================================
     atom number    1 relative position :    0.0000   0.0000   0.0000
     charge :    13.666520  (integrated on a sphere of radius 0.045)
     magnetization :         -0.000000   -0.000006    4.323691
     magnetization/charge:   -0.000000   -0.000000    0.316371
     polar coord.: r, theta, phi [deg] :     4.323691    0.000083  -90.000000

 ==============================================================================

 ==============================================================================
     atom number    2 relative position :    0.0000   0.0000   1.4937
     charge :    13.666525  (integrated on a sphere of radius 0.045)
     magnetization :          0.000000   -0.000002   -4.323684
     magnetization/charge:    0.000000   -0.000000   -0.316370
     polar coord.: r, theta, phi [deg] :     4.323684  179.999977  -90.000000

 ==============================================================================

 ==============================================================================
     atom number    3 relative position :    0.0000   0.0000   0.6351
     charge :    12.629781  (integrated on a sphere of radius 0.046)
     magnetization :         -0.000000    0.000001   -0.022071
     magnetization/charge:   -0.000000    0.000000   -0.001748
     polar coord.: r, theta, phi [deg] :     0.022071  179.997913   90.000000

 ==============================================================================

 ==============================================================================
     atom number    4 relative position :    0.0000   0.0000   2.1281
     charge :    12.626771  (integrated on a sphere of radius 0.046)
     magnetization :         -0.000000   -0.000003    0.022273
     magnetization/charge:   -0.000000   -0.000000    0.001764
     polar coord.: r, theta, phi [deg] :     0.022273    0.007227  -90.000000

 ==============================================================================

 ==============================================================================
     atom number    5 relative position :    0.0000   0.0000   0.8587
     charge :    12.629777  (integrated on a sphere of radius 0.046)
     magnetization :          0.000000    0.000000    0.022075
     magnetization/charge:    0.000000    0.000000    0.001748
     polar coord.: r, theta, phi [deg] :     0.022075    0.000214   90.000000

 ==============================================================================

 ==============================================================================
     atom number    6 relative position :    0.0000   0.0000   2.3531
     charge :    12.626775  (integrated on a sphere of radius 0.046)
     magnetization :          0.000000    0.000003   -0.022272
     magnetization/charge:    0.000000    0.000000   -0.001764
     polar coord.: r, theta, phi [deg] :     0.022272  179.993360   90.000000

 ==============================================================================

 ==============================================================================
     atom number    7 relative position :    0.0000   0.0000   0.1992
     charge :     3.790948  (integrated on a sphere of radius 0.045)
     magnetization :         -0.000000   -0.000004    0.051252
     magnetization/charge:   -0.000000   -0.000001    0.013520
     polar coord.: r, theta, phi [deg] :     0.051252    0.004210  -90.000000

 ==============================================================================

 ==============================================================================
     atom number    8 relative position :    0.0000   0.0000   1.6929
     charge :     3.796543  (integrated on a sphere of radius 0.045)
     magnetization :         -0.000000   -0.000004   -0.050153
     magnetization/charge:   -0.000000   -0.000001   -0.013210
     polar coord.: r, theta, phi [deg] :     0.050153  179.995370  -90.000000

 ==============================================================================

 ==============================================================================
     atom number    9 relative position :    0.0000   0.0000   1.2945
     charge :     3.790954  (integrated on a sphere of radius 0.045)
     magnetization :         -0.000000   -0.000002   -0.051250
     magnetization/charge:   -0.000000   -0.000001   -0.013519
     polar coord.: r, theta, phi [deg] :     0.051250  179.997235  -90.000000

 ==============================================================================

 ==============================================================================
     atom number   10 relative position :    0.0000   0.0000   2.7883
     charge :     3.796537  (integrated on a sphere of radius 0.045)
     magnetization :         -0.000000    0.000001    0.050157
     magnetization/charge:   -0.000000    0.000000    0.013211
     polar coord.: r, theta, phi [deg] :     0.050157    0.001128   90.000000

 ==============================================================================

 ==============================================================================
     atom number   11 relative position :    0.0000   0.0000   0.4392
     charge :     3.845728  (integrated on a sphere of radius 0.045)
     magnetization :          0.000000    0.000000   -0.014042
     magnetization/charge:    0.000000    0.000000   -0.003651
     polar coord.: r, theta, phi [deg] :     0.014042  179.997989   90.000000

 ==============================================================================

 ==============================================================================
     atom number   12 relative position :    0.0000   0.0000   1.9330
     charge :     3.843572  (integrated on a sphere of radius 0.045)
     magnetization :          0.000000    0.000001    0.014171
     magnetization/charge:    0.000000    0.000000    0.003687
     polar coord.: r, theta, phi [deg] :     0.014171    0.004184   90.000000

 ==============================================================================

 ==============================================================================
     atom number   13 relative position :    0.0000   0.0000   1.0545
     charge :     3.845732  (integrated on a sphere of radius 0.045)
     magnetization :          0.000000    0.000001    0.014044
     magnetization/charge:    0.000000    0.000000    0.003652
     polar coord.: r, theta, phi [deg] :     0.014044    0.003187   90.000000

 ==============================================================================

 ==============================================================================
     atom number   14 relative position :    0.0000   0.0000   2.5482
     charge :     3.843572  (integrated on a sphere of radius 0.045)
     magnetization :         -0.000000    0.000001   -0.014172
     magnetization/charge:   -0.000000    0.000000   -0.003687
     polar coord.: r, theta, phi [deg] :     0.014172  179.994898   90.000000

 ==============================================================================

     total cpu time spent up to now is     4263.3 secs

     total energy              =   -7140.71538357 Ry
     estimated scf accuracy    <       0.00353916 Ry

     total magnetization       =     0.00    -0.00     0.00 Bohr mag/cell
     absolute magnetization    =     9.86 Bohr mag/cell

     iteration #  6     ecut=    60.00 Ry     beta= 0.40
     Davidson diagonalization with overlap

---- Real-time Memory Report at c_bands before calling an iterative solver
           524 MiB given to the printing process from OS
             0 MiB allocation reported by mallinfo(arena+hblkhd)
        228460 MiB available memory on the node where the printing process lives
------------------
     ethr =  2.56E-06,  avg # of iterations =  4.1

 ==============================================================================
     atom number    1 relative position :    0.0000   0.0000   0.0000
     charge :    13.667209  (integrated on a sphere of radius 0.045)
     magnetization :         -0.000000   -0.000007    4.324041
     magnetization/charge:   -0.000000   -0.000000    0.316381
     polar coord.: r, theta, phi [deg] :     4.324041    0.000088  -90.000000

 ==============================================================================

 ==============================================================================
     atom number    2 relative position :    0.0000   0.0000   1.4937
     charge :    13.667216  (integrated on a sphere of radius 0.045)
     magnetization :          0.000000   -0.000004   -4.324031
     magnetization/charge:    0.000000   -0.000000   -0.316380
     polar coord.: r, theta, phi [deg] :     4.324031  179.999953  -90.000000

 ==============================================================================

 ==============================================================================
     atom number    3 relative position :    0.0000   0.0000   0.6351
     charge :    12.629109  (integrated on a sphere of radius 0.046)
     magnetization :          0.000000   -0.000000   -0.022252
     magnetization/charge:    0.000000   -0.000000   -0.001762
     polar coord.: r, theta, phi [deg] :     0.022252  179.998766  -90.000000

 ==============================================================================

 ==============================================================================
     atom number    4 relative position :    0.0000   0.0000   2.1281
     charge :    12.626071  (integrated on a sphere of radius 0.046)
     magnetization :          0.000000   -0.000002    0.022469
     magnetization/charge:    0.000000   -0.000000    0.001780
     polar coord.: r, theta, phi [deg] :     0.022469    0.003977  -90.000000

 ==============================================================================

 ==============================================================================
     atom number    5 relative position :    0.0000   0.0000   0.8587
     charge :    12.629106  (integrated on a sphere of radius 0.046)
     magnetization :         -0.000000    0.000000    0.022253
     magnetization/charge:   -0.000000    0.000000    0.001762
     polar coord.: r, theta, phi [deg] :     0.022253    0.001036   90.000000

 ==============================================================================

 ==============================================================================
     atom number    6 relative position :    0.0000   0.0000   2.3531
     charge :    12.626075  (integrated on a sphere of radius 0.046)
     magnetization :         -0.000000    0.000001   -0.022469
     magnetization/charge:   -0.000000    0.000000   -0.001780
     polar coord.: r, theta, phi [deg] :     0.022469  179.998615   90.000000

 ==============================================================================

 ==============================================================================
     atom number    7 relative position :    0.0000   0.0000   0.1992
     charge :     3.792318  (integrated on a sphere of radius 0.045)
     magnetization :          0.000000   -0.000001    0.051544
     magnetization/charge:    0.000000   -0.000000    0.013592
     polar coord.: r, theta, phi [deg] :     0.051544    0.001322  -90.000000

 ==============================================================================

 ==============================================================================
     atom number    8 relative position :    0.0000   0.0000   1.6929
     charge :     3.797925  (integrated on a sphere of radius 0.045)
     magnetization :         -0.000000   -0.000002   -0.050486
     magnetization/charge:   -0.000000   -0.000000   -0.013293
     polar coord.: r, theta, phi [deg] :     0.050486  179.997968  -90.000000

 ==============================================================================

 ==============================================================================
     atom number    9 relative position :    0.0000   0.0000   1.2945
     charge :     3.792323  (integrated on a sphere of radius 0.045)
     magnetization :          0.000000   -0.000001   -0.051545
     magnetization/charge:    0.000000   -0.000000   -0.013592
     polar coord.: r, theta, phi [deg] :     0.051545  179.999048  -90.000000

 ==============================================================================

 ==============================================================================
     atom number   10 relative position :    0.0000   0.0000   2.7883
     charge :     3.797921  (integrated on a sphere of radius 0.045)
     magnetization :         -0.000000    0.000000    0.050486
     magnetization/charge:   -0.000000    0.000000    0.013293
     polar coord.: r, theta, phi [deg] :     0.050486    0.000338   90.000000

 ==============================================================================

 ==============================================================================
     atom number   11 relative position :    0.0000   0.0000   0.4392
     charge :     3.843538  (integrated on a sphere of radius 0.045)
     magnetization :         -0.000000    0.000000   -0.014396
     magnetization/charge:   -0.000000    0.000000   -0.003746
     polar coord.: r, theta, phi [deg] :     0.014396  179.999154   90.000000

 ==============================================================================

 ==============================================================================
     atom number   12 relative position :    0.0000   0.0000   1.9330
     charge :     3.841355  (integrated on a sphere of radius 0.045)
     magnetization :          0.000000   -0.000000    0.014408
     magnetization/charge:    0.000000   -0.000000    0.003751
     polar coord.: r, theta, phi [deg] :     0.014408    0.001149  -90.000000

 ==============================================================================

 ==============================================================================
     atom number   13 relative position :    0.0000   0.0000   1.0545
     charge :     3.843542  (integrated on a sphere of radius 0.045)
     magnetization :          0.000000    0.000001    0.014399
     magnetization/charge:    0.000000    0.000000    0.003746
     polar coord.: r, theta, phi [deg] :     0.014399    0.004491   90.000000

 ==============================================================================

 ==============================================================================
     atom number   14 relative position :    0.0000   0.0000   2.5482
     charge :     3.841355  (integrated on a sphere of radius 0.045)
     magnetization :         -0.000000    0.000001   -0.014409
     magnetization/charge:   -0.000000    0.000000   -0.003751
     polar coord.: r, theta, phi [deg] :     0.014409  179.997172   90.000000

 ==============================================================================

     total cpu time spent up to now is     4768.1 secs

     total energy              =   -7140.71554875 Ry
     estimated scf accuracy    <       0.00040502 Ry

     total magnetization       =     0.00    -0.00     0.00 Bohr mag/cell
     absolute magnetization    =     9.86 Bohr mag/cell

     iteration #  7     ecut=    60.00 Ry     beta= 0.40
     Davidson diagonalization with overlap

---- Real-time Memory Report at c_bands before calling an iterative solver
           531 MiB given to the printing process from OS
             0 MiB allocation reported by mallinfo(arena+hblkhd)
        228251 MiB available memory on the node where the printing process lives
------------------
     c_bands:  1 eigenvalues not converged
     ethr =  2.93E-07,  avg # of iterations =  9.7

 ==============================================================================
     atom number    1 relative position :    0.0000   0.0000   0.0000
     charge :    13.666524  (integrated on a sphere of radius 0.045)
     magnetization :          0.000000   -0.000007    4.328095
     magnetization/charge:    0.000000   -0.000001    0.316693
     polar coord.: r, theta, phi [deg] :     4.328095    0.000093  -90.000000

 ==============================================================================

 ==============================================================================
     atom number    2 relative position :    0.0000   0.0000   1.4937
     charge :    13.666531  (integrated on a sphere of radius 0.045)
     magnetization :          0.000000   -0.000004   -4.328082
     magnetization/charge:    0.000000   -0.000000   -0.316692
     polar coord.: r, theta, phi [deg] :     4.328082  179.999941  -90.000000

 ==============================================================================

 ==============================================================================
     atom number    3 relative position :    0.0000   0.0000   0.6351
     charge :    12.628962  (integrated on a sphere of radius 0.046)
     magnetization :         -0.000000    0.000000   -0.022377
     magnetization/charge:   -0.000000    0.000000   -0.001772
     polar coord.: r, theta, phi [deg] :     0.022377  179.998945   90.000000

 ==============================================================================

 ==============================================================================
     atom number    4 relative position :    0.0000   0.0000   2.1281
     charge :    12.625915  (integrated on a sphere of radius 0.046)
     magnetization :          0.000000   -0.000002    0.022601
     magnetization/charge:    0.000000   -0.000000    0.001790
     polar coord.: r, theta, phi [deg] :     0.022601    0.005267  -90.000000

 ==============================================================================

 ==============================================================================
     atom number    5 relative position :    0.0000   0.0000   0.8587
     charge :    12.628958  (integrated on a sphere of radius 0.046)
     magnetization :          0.000000    0.000001    0.022377
     magnetization/charge:    0.000000    0.000000    0.001772
     polar coord.: r, theta, phi [deg] :     0.022377    0.002107   90.000000

 ==============================================================================

 ==============================================================================
     atom number    6 relative position :    0.0000   0.0000   2.3531
     charge :    12.625918  (integrated on a sphere of radius 0.046)
     magnetization :         -0.000000    0.000001   -0.022602
     magnetization/charge:   -0.000000    0.000000   -0.001790
     polar coord.: r, theta, phi [deg] :     0.022602  179.998282   90.000000

 ==============================================================================

 ==============================================================================
     atom number    7 relative position :    0.0000   0.0000   0.1992
     charge :     3.793063  (integrated on a sphere of radius 0.045)
     magnetization :         -0.000000    0.000000    0.051316
     magnetization/charge:   -0.000000    0.000000    0.013529
     polar coord.: r, theta, phi [deg] :     0.051316    0.000054   90.000000

 ==============================================================================

 ==============================================================================
     atom number    8 relative position :    0.0000   0.0000   1.6929
     charge :     3.798696  (integrated on a sphere of radius 0.045)
     magnetization :         -0.000000   -0.000001   -0.050291
     magnetization/charge:   -0.000000   -0.000000   -0.013239
     polar coord.: r, theta, phi [deg] :     0.050291  179.998857  -90.000000

 ==============================================================================

 ==============================================================================
     atom number    9 relative position :    0.0000   0.0000   1.2945
     charge :     3.793068  (integrated on a sphere of radius 0.045)
     magnetization :         -0.000000   -0.000001   -0.051316
     magnetization/charge:   -0.000000   -0.000000   -0.013529
     polar coord.: r, theta, phi [deg] :     0.051316  179.998661  -90.000000

 ==============================================================================

 ==============================================================================
     atom number   10 relative position :    0.0000   0.0000   2.7883
     charge :     3.798691  (integrated on a sphere of radius 0.045)
[...]

 ==============================================================================

 ==============================================================================
     atom number    8 relative position :    0.0000   0.0000   1.6929
     charge :     3.799386  (integrated on a sphere of radius 0.045)
     magnetization :          0.000000   -0.000005   -0.050157
     magnetization/charge:    0.000000   -0.000001   -0.013201
     polar coord.: r, theta, phi [deg] :     0.050157  179.994412  -90.000000

 ==============================================================================

 ==============================================================================
     atom number    9 relative position :    0.0000   0.0000   1.2945
     charge :     3.793644  (integrated on a sphere of radius 0.045)
     magnetization :          0.000000    0.000004   -0.051144
     magnetization/charge:    0.000000    0.000001   -0.013481
     polar coord.: r, theta, phi [deg] :     0.051144  179.995027   90.000000

 ==============================================================================

 ==============================================================================
     atom number   10 relative position :    0.0000   0.0000   2.7883
     charge :     3.799382  (integrated on a sphere of radius 0.045)
     magnetization :         -0.000000   -0.000031    0.050188
     magnetization/charge:   -0.000000   -0.000008    0.013209
     polar coord.: r, theta, phi [deg] :     0.050188    0.035400  -90.000000

 ==============================================================================

 ==============================================================================
     atom number   11 relative position :    0.0000   0.0000   0.4392
     charge :     3.843278  (integrated on a sphere of radius 0.045)
     magnetization :          0.000000    0.000002   -0.013009
     magnetization/charge:    0.000000    0.000000   -0.003385
     polar coord.: r, theta, phi [deg] :     0.013009  179.992187   90.000000

 ==============================================================================

 ==============================================================================
     atom number   12 relative position :    0.0000   0.0000   1.9330
     charge :     3.841125  (integrated on a sphere of radius 0.045)
     magnetization :         -0.000000   -0.000003    0.012906
     magnetization/charge:   -0.000000   -0.000001    0.003360
     polar coord.: r, theta, phi [deg] :     0.012906    0.011103  -90.000000

 ==============================================================================

 ==============================================================================
     atom number   13 relative position :    0.0000   0.0000   1.0545
     charge :     3.843282  (integrated on a sphere of radius 0.045)
     magnetization :         -0.000000   -0.000004    0.013028
     magnetization/charge:   -0.000000   -0.000001    0.003390
     polar coord.: r, theta, phi [deg] :     0.013028    0.016415  -90.000000

 ==============================================================================

 ==============================================================================
     atom number   14 relative position :    0.0000   0.0000   2.5482
     charge :     3.841128  (integrated on a sphere of radius 0.045)
     magnetization :          0.000000   -0.000007   -0.012982
     magnetization/charge:    0.000000   -0.000002   -0.003380
     polar coord.: r, theta, phi [deg] :     0.012982  179.968449  -90.000000

 ==============================================================================

     total cpu time spent up to now is    34490.0 secs

     total energy              =   -7140.71564672 Ry
     estimated scf accuracy    <       0.00000016 Ry

     total magnetization       =    -0.00     0.00    -0.00 Bohr mag/cell
     absolute magnetization    =     9.88 Bohr mag/cell

     iteration # 29     ecut=    60.00 Ry     beta= 0.40
     Davidson diagonalization with overlap

---- Real-time Memory Report at c_bands before calling an iterative solver
           613 MiB given to the printing process from OS
             0 MiB allocation reported by mallinfo(arena+hblkhd)
        226732 MiB available memory on the node where the printing process lives
------------------
     ethr =  1.05E-10,  avg # of iterations =  3.5

 ==============================================================================
     atom number    1 relative position :    0.0000   0.0000   0.0000
     charge :    13.665782  (integrated on a sphere of radius 0.045)
     magnetization :          0.000000    0.000022    4.329455
     magnetization/charge:    0.000000    0.000002    0.316810
     polar coord.: r, theta, phi [deg] :     4.329455    0.000294   90.000000

 ==============================================================================

 ==============================================================================
     atom number    2 relative position :    0.0000   0.0000   1.4937
     charge :    13.665789  (integrated on a sphere of radius 0.045)
     magnetization :         -0.000000    0.000002   -4.329435
     magnetization/charge:   -0.000000    0.000000   -0.316808
     polar coord.: r, theta, phi [deg] :     4.329435  179.999972   90.000000

 ==============================================================================

 ==============================================================================
     atom number    3 relative position :    0.0000   0.0000   0.6351
     charge :    12.628653  (integrated on a sphere of radius 0.046)
     magnetization :          0.000000   -0.000011   -0.022420
     magnetization/charge:    0.000000   -0.000001   -0.001775
     polar coord.: r, theta, phi [deg] :     0.022420  179.971224  -90.000000

 ==============================================================================

 ==============================================================================
     atom number    4 relative position :    0.0000   0.0000   2.1281
     charge :    12.625605  (integrated on a sphere of radius 0.046)
     magnetization :         -0.000000   -0.000014    0.022660
     magnetization/charge:   -0.000000   -0.000001    0.001795
     polar coord.: r, theta, phi [deg] :     0.022660    0.035368  -90.000000

 ==============================================================================

 ==============================================================================
     atom number    5 relative position :    0.0000   0.0000   0.8587
     charge :    12.628651  (integrated on a sphere of radius 0.046)
     magnetization :         -0.000000    0.000035    0.022436
     magnetization/charge:   -0.000000    0.000003    0.001777
     polar coord.: r, theta, phi [deg] :     0.022436    0.089457   90.000000

 ==============================================================================

 ==============================================================================
     atom number    6 relative position :    0.0000   0.0000   2.3531
     charge :    12.625608  (integrated on a sphere of radius 0.046)
     magnetization :         -0.000000   -0.000014   -0.022664
     magnetization/charge:   -0.000000   -0.000001   -0.001795
     polar coord.: r, theta, phi [deg] :     0.022664  179.964637  -90.000000

 ==============================================================================

 ==============================================================================
     atom number    7 relative position :    0.0000   0.0000   0.1992
     charge :     3.793642  (integrated on a sphere of radius 0.045)
     magnetization :         -0.000000    0.000011    0.051138
     magnetization/charge:   -0.000000    0.000003    0.013480
     polar coord.: r, theta, phi [deg] :     0.051138    0.012478   90.000000

 ==============================================================================

 ==============================================================================
     atom number    8 relative position :    0.0000   0.0000   1.6929
     charge :     3.799390  (integrated on a sphere of radius 0.045)
     magnetization :         -0.000000   -0.000002   -0.050156
     magnetization/charge:   -0.000000   -0.000000   -0.013201
     polar coord.: r, theta, phi [deg] :     0.050156  179.998249  -90.000000

 ==============================================================================

 ==============================================================================
     atom number    9 relative position :    0.0000   0.0000   1.2945
     charge :     3.793647  (integrated on a sphere of radius 0.045)
     magnetization :          0.000000    0.000006   -0.051143
     magnetization/charge:    0.000000    0.000002   -0.013481
     polar coord.: r, theta, phi [deg] :     0.051143  179.993446   90.000000

 ==============================================================================

 ==============================================================================
     atom number   10 relative position :    0.0000   0.0000   2.7883
     charge :     3.799387  (integrated on a sphere of radius 0.045)
     magnetization :          0.000000   -0.000028    0.050186
     magnetization/charge:    0.000000   -0.000007    0.013209
     polar coord.: r, theta, phi [deg] :     0.050186    0.031460  -90.000000

 ==============================================================================

 ==============================================================================
     atom number   11 relative position :    0.0000   0.0000   0.4392
     charge :     3.843276  (integrated on a sphere of radius 0.045)
     magnetization :         -0.000000    0.000003   -0.012999
     magnetization/charge:   -0.000000    0.000001   -0.003382
     polar coord.: r, theta, phi [deg] :     0.012999  179.986517   90.000000

 ==============================================================================

 ==============================================================================
     atom number   12 relative position :    0.0000   0.0000   1.9330
     charge :     3.841124  (integrated on a sphere of radius 0.045)
     magnetization :          0.000000    0.000001    0.012904
     magnetization/charge:    0.000000    0.000000    0.003359
     polar coord.: r, theta, phi [deg] :     0.012904    0.003339   90.000000

 ==============================================================================

 ==============================================================================
     atom number   13 relative position :    0.0000   0.0000   1.0545
     charge :     3.843280  (integrated on a sphere of radius 0.045)
     magnetization :         -0.000000   -0.000008    0.013014
     magnetization/charge:   -0.000000   -0.000002    0.003386
     polar coord.: r, theta, phi [deg] :     0.013014    0.034618  -90.000000

 ==============================================================================

 ==============================================================================
     atom number   14 relative position :    0.0000   0.0000   2.5482
     charge :     3.841127  (integrated on a sphere of radius 0.045)
     magnetization :          0.000000   -0.000011   -0.013003
     magnetization/charge:    0.000000   -0.000003   -0.003385
     polar coord.: r, theta, phi [deg] :     0.013003  179.953008  -90.000000

 ==============================================================================

     total cpu time spent up to now is    35071.9 secs

     total energy              =   -7140.71564700 Ry
     estimated scf accuracy    <       0.00000014 Ry

     total magnetization       =     0.00     0.00    -0.00 Bohr mag/cell
     absolute magnetization    =     9.87 Bohr mag/cell

     iteration # 30     ecut=    60.00 Ry     beta= 0.40
     Davidson diagonalization with overlap

---- Real-time Memory Report at c_bands before calling an iterative solver
           613 MiB given to the printing process from OS
             0 MiB allocation reported by mallinfo(arena+hblkhd)
        226807 MiB available memory on the node where the printing process lives
------------------
     ethr =  9.83E-11,  avg # of iterations =  3.1

 ==============================================================================
     atom number    1 relative position :    0.0000   0.0000   0.0000
     charge :    13.665777  (integrated on a sphere of radius 0.045)
     magnetization :         -0.000000    0.000022    4.329458
     magnetization/charge:   -0.000000    0.000002    0.316810
     polar coord.: r, theta, phi [deg] :     4.329458    0.000290   90.000000

 ==============================================================================

 ==============================================================================
     atom number    2 relative position :    0.0000   0.0000   1.4937
     charge :    13.665784  (integrated on a sphere of radius 0.045)
     magnetization :          0.000000    0.000001   -4.329437
     magnetization/charge:    0.000000    0.000000   -0.316809
     polar coord.: r, theta, phi [deg] :     4.329437  179.999983   90.000000

 ==============================================================================

 ==============================================================================
     atom number    3 relative position :    0.0000   0.0000   0.6351
     charge :    12.628650  (integrated on a sphere of radius 0.046)
     magnetization :          0.000000   -0.000018   -0.022419
     magnetization/charge:    0.000000   -0.000001   -0.001775
     polar coord.: r, theta, phi [deg] :     0.022419  179.954675  -90.000000

 ==============================================================================

 ==============================================================================
     atom number    4 relative position :    0.0000   0.0000   2.1281
     charge :    12.625602  (integrated on a sphere of radius 0.046)
     magnetization :         -0.000000   -0.000014    0.022659
     magnetization/charge:   -0.000000   -0.000001    0.001795
     polar coord.: r, theta, phi [deg] :     0.022659    0.034690  -90.000000

 ==============================================================================

 ==============================================================================
     atom number    5 relative position :    0.0000   0.0000   0.8587
     charge :    12.628648  (integrated on a sphere of radius 0.046)
     magnetization :         -0.000000    0.000043    0.022438
     magnetization/charge:   -0.000000    0.000003    0.001777
     polar coord.: r, theta, phi [deg] :     0.022438    0.109631   90.000000

 ==============================================================================

 ==============================================================================
     atom number    6 relative position :    0.0000   0.0000   2.3531
     charge :    12.625605  (integrated on a sphere of radius 0.046)
     magnetization :          0.000000   -0.000012   -0.022665
     magnetization/charge:    0.000000   -0.000001   -0.001795
     polar coord.: r, theta, phi [deg] :     0.022665  179.968992  -90.000000

 ==============================================================================

 ==============================================================================
     atom number    7 relative position :    0.0000   0.0000   0.1992
     charge :     3.793646  (integrated on a sphere of radius 0.045)
     magnetization :         -0.000000    0.000014    0.051133
     magnetization/charge:   -0.000000    0.000004    0.013479
     polar coord.: r, theta, phi [deg] :     0.051133    0.015227   90.000000

 ==============================================================================

 ==============================================================================
     atom number    8 relative position :    0.0000   0.0000   1.6929
     charge :     3.799394  (integrated on a sphere of radius 0.045)
     magnetization :          0.000000    0.000002   -0.050153
     magnetization/charge:    0.000000    0.000001   -0.013200
     polar coord.: r, theta, phi [deg] :     0.050153  179.997373   90.000000

 ==============================================================================

 ==============================================================================
     atom number    9 relative position :    0.0000   0.0000   1.2945
     charge :     3.793651  (integrated on a sphere of radius 0.045)
     magnetization :          0.000000    0.000005   -0.051141
     magnetization/charge:    0.000000    0.000001   -0.013481
     polar coord.: r, theta, phi [deg] :     0.051141  179.994182   90.000000

 ==============================================================================

 ==============================================================================
     atom number   10 relative position :    0.0000   0.0000   2.7883
     charge :     3.799391  (integrated on a sphere of radius 0.045)
     magnetization :          0.000000   -0.000030    0.050188
     magnetization/charge:    0.000000   -0.000008    0.013209
     polar coord.: r, theta, phi [deg] :     0.050188    0.034511  -90.000000

 ==============================================================================

 ==============================================================================
     atom number   11 relative position :    0.0000   0.0000   0.4392
     charge :     3.843276  (integrated on a sphere of radius 0.045)
     magnetization :          0.000000    0.000003   -0.012994
     magnetization/charge:    0.000000    0.000001   -0.003381
     polar coord.: r, theta, phi [deg] :     0.012994  179.988232   90.000000

 ==============================================================================

 ==============================================================================
     atom number   12 relative position :    0.0000   0.0000   1.9330
     charge :     3.841122  (integrated on a sphere of radius 0.045)
     magnetization :         -0.000000    0.000002    0.012888
     magnetization/charge:   -0.000000    0.000000    0.003355
     polar coord.: r, theta, phi [deg] :     0.012888    0.008036   90.000000

 ==============================================================================

 ==============================================================================
     atom number   13 relative position :    0.0000   0.0000   1.0545
     charge :     3.843279  (integrated on a sphere of radius 0.045)
     magnetization :          0.000000   -0.000015    0.013025
     magnetization/charge:    0.000000   -0.000004    0.003389
     polar coord.: r, theta, phi [deg] :     0.013025    0.065607  -90.000000

 ==============================================================================

 ==============================================================================
     atom number   14 relative position :    0.0000   0.0000   2.5482
     charge :     3.841127  (integrated on a sphere of radius 0.045)
     magnetization :         -0.000000   -0.000007   -0.013012
     magnetization/charge:   -0.000000   -0.000002   -0.003388
     polar coord.: r, theta, phi [deg] :     0.013012  179.968274  -90.000000

 ==============================================================================

     total cpu time spent up to now is    35659.3 secs

     total energy              =   -7140.71564621 Ry
     estimated scf accuracy    <       0.00000015 Ry

     total magnetization       =    -0.00     0.00    -0.00 Bohr mag/cell
     absolute magnetization    =     9.88 Bohr mag/cell

     iteration # 31     ecut=    60.00 Ry     beta= 0.40
     Davidson diagonalization with overlap

---- Real-time Memory Report at c_bands before calling an iterative solver
           614 MiB given to the printing process from OS
             0 MiB allocation reported by mallinfo(arena+hblkhd)
        226832 MiB available memory on the node where the printing process lives
------------------
     ethr =  9.83E-11,  avg # of iterations =  8.8
