 
             +---------------------------------------------------+
             |                                                   |
             |                   WANNIER90                       |
             |                                                   |
             +---------------------------------------------------+
             |                                                   |
             |        Welcome to the Maximally-Localized         |
             |        Generalized Wannier Functions code         |
             |            http://www.wannier.org                 |
             |                                                   |
             |                                                   |
             |  Wannier90 Developer Group:                       |
             |    Giovanni Pizzi    (EPFL)                       |
             |    Valerio Vitale    (Cambridge)                  |
             |    David Vanderbilt  (Rutgers University)         |
             |    Nicola Marzari    (EPFL)                       |
             |    Ivo Souza         (Universidad del Pais Vasco) |
             |    Arash A. Mostofi  (Imperial College London)    |
             |    Jonathan R. Yates (University of Oxford)       |
             |                                                   |
             |  For the full list of Wannier90 3.x authors,      |
             |  please check the code documentation and the      |
             |  README on the GitHub page of the code            |
             |                                                   |
             |                                                   |
             |  Please cite                                      |
             |                                                   |
             |  [ref] "Wannier90 as a community code:            |
             |        new features and applications",            |
             |        G. Pizzi et al., J. Phys. Cond. Matt. 32,  |
             |        165902 (2020).                             |
             |        http://doi.org/10.1088/1361-648X/ab51ff    |
             |                                                   |
             |  in any publications arising from the use of      |
             |  this code. For the method please cite            |
             |                                                   |
             |  [ref] "Maximally Localized Generalised Wannier   |
             |         Functions for Composite Energy Bands"     |
             |         N. Marzari and D. Vanderbilt              |
             |         Phys. Rev. B 56 12847 (1997)              |
             |                                                   |
             |  [ref] "Maximally Localized Wannier Functions     |
             |         for Entangled Energy Bands"               |
             |         I. Souza, N. Marzari and D. Vanderbilt    |
             |         Phys. Rev. B 65 035109 (2001)             |
             |                                                   |
             |                                                   |
             | Copyright (c) 1996-2020                           |
             |        The Wannier90 Developer Group and          |
             |        individual contributors                    |
             |                                                   |
             |      Release: 3.1.0        5th March    2020      |
             |                                                   |
             | This program is free software; you can            |
             | redistribute it and/or modify it under the terms  |
             | of the GNU General Public License as published by |
             | the Free Software Foundation; either version 2 of |
             | the License, or (at your option) any later version|
             |                                                   |
             | This program is distributed in the hope that it   |
             | will be useful, but WITHOUT ANY WARRANTY; without |
             | even the implied warranty of MERCHANTABILITY or   |
             | FITNESS FOR A PARTICULAR PURPOSE. See the GNU     |
             | General Public License for more details.          |
             |                                                   |
             | You should have received a copy of the GNU General|
             | Public License along with this program; if not,   |
             | write to the Free Software Foundation, Inc.,      |
             | 675 Mass Ave, Cambridge, MA 02139, USA.           |
             |                                                   |
             +---------------------------------------------------+
             |    Execution started on 16Jan2026 at 17:00:01     |
             +---------------------------------------------------+
 
 ******************************************************************************
 * -> Using CODATA 2006 constant values                                       *
 *    (http://physics.nist.gov/cuu/Constants/index.html)                      *
 * -> Using Bohr value from CODATA                                            *
 ******************************************************************************
 

 Running in parallel on  48 CPUs

 
                                    ------
                                    SYSTEM
                                    ------
 
                              Lattice Vectors (Ang)
                    a_1     2.166809  -1.251015  27.284009
                    a_2     0.000000   2.502002  27.284009
                    a_3    -2.166809  -1.251015  27.284009
 
                   Unit Cell Volume:     443.75088  (Ang^3)
 
                        Reciprocal-Space Vectors (Ang^-1)
                    b_1     1.449871  -0.837085   0.076762
                    b_2     0.000000   1.674169   0.076763
                    b_3    -1.449871  -0.837085   0.076762
  
 *----------------------------------------------------------------------------*
 |   Site       Fractional Coordinate          Cartesian Coordinate (Ang)     |
 +----------------------------------------------------------------------------+
 | Mn   1   0.00000   0.00000   0.00000   |    0.00000   0.00000   0.00000    |
 | Mn   1   0.50000   0.50000   0.50000   |    0.00000   0.00000  40.92600    |
 | Bi   1   0.21257   0.21257   0.21257   |    0.00000   0.00000  17.39946    |
 | Bi   2   0.71233   0.71233   0.71233   |    0.00000   0.00000  58.30546    |
 | Bi   3   0.28743   0.28743   0.28743   |    0.00000   0.00000  23.52654    |
 | Bi   4   0.78767   0.78768   0.78767   |    0.00000   0.00000  64.47255    |
 | Te   1   0.06668   0.06668   0.06668   |    0.00000   0.00000   5.45789    |
 | Te   2   0.56668   0.56668   0.56668   |    0.00000   0.00000  46.38389    |
 | Te   3   0.43332   0.43332   0.43332   |    0.00000   0.00000  35.46811    |
 | Te   4   0.93332   0.93333   0.93332   |    0.00000   0.00000  76.39411    |
 | Te   5   0.14703   0.14703   0.14703   |    0.00000   0.00000  12.03470    |
 | Te   6   0.64703   0.64703   0.64703   |    0.00000   0.00000  52.96070    |
 | Te   7   0.35297   0.35297   0.35297   |    0.00000   0.00000  28.89130    |
 | Te   8   0.85297   0.85298   0.85297   |    0.00000   0.00000  69.81730    |
 *----------------------------------------------------------------------------*
                                ------------
                                K-POINT GRID
                                ------------
  
             Grid size =  8 x  8 x  8      Total points =  512
  
  
 *---------------------------------- MAIN ------------------------------------*
 |  Number of Wannier Functions               :                92             |
 |  Number of Objective Wannier Functions     :                92             |
 |  Number of input Bloch states              :               240             |
 |  Output verbosity (1=low, 5=high)          :                 1             |
 |  Timing Level (1=low, 5=high)              :                 1             |
 |  Optimisation (0=memory, 3=speed)          :                 3             |
 |  Length Unit                               :               Ang             |
 |  Post-processing setup (write *.nnkp)      :                 F             |
 |  Using Gamma-only branch of algorithms     :                 F             |
 *----------------------------------------------------------------------------*
 *------------------------------- WANNIERISE ---------------------------------*
 |  Total number of iterations                :               100             |
 |  Number of CG steps before reset           :                 5             |
 |  Trial step length for line search         :             2.000             |
 |  Convergence tolerence                     :         0.100E-09             |
 |  Convergence window                        :                -1             |
 |  Iterations between writing output         :                 1             |
 |  Iterations between backing up to disk     :               100             |
 |  Write r^2_nm to file                      :                 F             |
 |  Write xyz WF centres to file              :                 T             |
 |  Write on-site energies <0n|H|0n> to file  :                 F             |
 |  Use guiding centre to control phases      :                 F             |
 |  Use phases for initial projections        :                 F             |
 *----------------------------------------------------------------------------*
 *------------------------------- DISENTANGLE --------------------------------*
 |  Using band disentanglement                :                 T             |
 |  Total number of iterations                :              5000             |
 |  Mixing ratio                              :             0.500             |
 |  Convergence tolerence                     :         1.000E-10             |
 |  Convergence window                        :                 3             |
 *----------------------------------------------------------------------------*
 *-------------------------------- PLOTTING ----------------------------------*
 |  Plotting interpolated bandstructure       :                 T             |
 |   Number of K-path sections                :                 5             |
 |   Divisions along first K-path section     :               100             |
 |   Output format                            :           gnuplot             |
 |   Output mode                              :               s-k             |
 *----------------------------------------------------------------------------*
 |   K-space path sections:                                                   |
 |    From: G       0.000  0.000  0.000     To: T       0.500  0.500  0.500   |
 |    From: T       0.500  0.500  0.500     To: P1      0.664  0.172  0.664   |
 |    From: P1      0.664  0.172  0.664     To: F       0.500  0.000  0.500   |
 |    From: F       0.500  0.000  0.500     To: G       0.000  0.000  0.000   |
 |    From: G       0.000  0.000  0.000     To: L       0.500  0.000  0.000   |
 *----------------------------------------------------------------------------*
 |  Plotting Hamiltonian in WF basis          :                 T             |
 *----------------------------------------------------------------------------*
 Time to read parameters        0.314 (sec)

 *---------------------------------- K-MESH ----------------------------------*
 +----------------------------------------------------------------------------+
 |                    Distance to Nearest-Neighbour Shells                    |
 |                    ------------------------------------                    |
 |          Shell             Distance (Ang^-1)          Multiplicity         |
 |          -----             -----------------          ------------         |
 |             1                   0.028786                      2            |
 |             2                   0.057572                      2            |
 |             3                   0.086358                      2            |
 |             4                   0.115144                      2            |
 |             5                   0.143930                      2            |
 |             6                   0.172716                      2            |
 |             7                   0.201502                      2            |
 |             8                   0.209491                      6            |
 |             9                   0.210149                      6            |
 |            10                   0.212761                      6            |
 |            11                   0.214700                      6            |
 |            12                   0.219786                      6            |
 |            13                   0.222905                      6            |
 |            14                   0.230288                      8            |
 |            15                   0.234382                      6            |
 |            16                   0.243627                      6            |
 |            17                   0.248677                      6            |
 |            18                   0.259074                      2            |
 |            19                   0.259546                      6            |
 |            20                   0.265335                      6            |
 |            21                   0.277546                      6            |
 |            22                   0.283941                      6            |
 |            23                   0.287860                      2            |
 |            24                   0.297248                      6            |
 |            25                   0.304138                      6            |
 |            26                   0.316646                      2            |
 |            27                   0.318337                      6            |
 |            28                   0.325629                      6            |
 |            29                   0.340555                      6            |
 |            30                   0.345432                      2            |
 |            31                   0.348175                      6            |
 |            32                   0.362468                      6            |
 |            33                   0.363609                     18            |
 |            34                   0.367011                     12            |
 |            35                   0.371584                      6            |
 |            36                   0.372613                     12            |
 +----------------------------------------------------------------------------+
 | The b-vectors are chosen automatically                                     |
 | The following shells are used:   1,  8                                     |
 +----------------------------------------------------------------------------+
 |                        Shell   # Nearest-Neighbours                        |
 |                        -----   --------------------                        |
 |                          1               2                                 |
 |                          8               6                                 |
 +----------------------------------------------------------------------------+
 | Completeness relation is fully satisfied [Eq. (B1), PRB 56, 12847 (1997)]  |
 +----------------------------------------------------------------------------+
 |                  b_k Vectors (Ang^-1) and Weights (Ang^2)                  |
 |                  ----------------------------------------                  |
 |            No.         b_k(x)      b_k(y)      b_k(z)        w_b           |
 |            ---        --------------------------------     --------        |
 |             1         0.000000    0.000000    0.028786   600.864703        |
 |             2         0.000000    0.000000   -0.028786   600.864703        |
 |             3        -0.181234   -0.104636    0.009595     7.611332        |
 |             4         0.000000    0.209271    0.009595     7.611332        |
 |             5         0.181234   -0.104636    0.009595     7.611332        |
 |             6         0.181234    0.104636   -0.009595     7.611332        |
 |             7        -0.181234    0.104636   -0.009595     7.611332        |
 |             8         0.000000   -0.209271   -0.009595     7.611332        |
 +----------------------------------------------------------------------------+
 |                           b_k Directions (Ang^-1)                          |
 |                           -----------------------                          |
 |            No.           x           y           z                         |
 |            ---        --------------------------------                     |
 |             1         0.000000    0.000000    0.028786                     |
 |             2        -0.181234   -0.104636    0.009595                     |
 |             3         0.000000    0.209271    0.009595                     |
 |             4         0.181234   -0.104636    0.009595                     |
 +----------------------------------------------------------------------------+
  
 Time to get kmesh              0.564 (sec)
 *============================================================================*
 |                              MEMORY ESTIMATE                               |
 |         Maximum RAM allocated during each phase of the calculation         |
 *============================================================================*
 |                        Disentanglement         4916.54 Mb                  |
 |                            Wannierise:         1511.32 Mb                  |
 |                          plot_wannier:         1511.32 Mb                  |
 *----------------------------------------------------------------------------*
  
 Starting a new Wannier90 calculation ...


 Reading overlaps from MnBi2Te4.mmn    :  Created on 13Jan2026 at  6:27:41

 Reading projections from MnBi2Te4.amn :  Created on 13Jan2026 at  5:57:31

 Time to read overlaps        479.218 (sec)

 *------------------------------- DISENTANGLE --------------------------------*
 +----------------------------------------------------------------------------+
 |                              Energy  Windows                               |
 |                              ---------------                               |
 |                   Outer:   -7.00000  to   20.00000  (eV)                   |
 |                   Inner:    0.00000  to   10.00000  (eV)                   |
 +----------------------------------------------------------------------------+
   Number of target bands to extract:   92

                   Unitarised projection of Wannier functions                  
                   ------------------------------------------                  
   A_mn = <psi_m|g_n> --> S = A.A^+ --> U = S^-1/2.A
   In dis_project... done
   Using an inner window (linner = T)
   In dis_proj_froz... done

                   Extraction of optimally-connected subspace                  
                   ------------------------------------------                  
 +---------------------------------------------------------------------+<-- DIS
 |  Iter     Omega_I(i-1)      Omega_I(i)      Delta (frac.)    Time   |<-- DIS
 +---------------------------------------------------------------------+<-- DIS
       1     433.77696878     391.52872691       1.079E-01      0.00    <-- DIS
       2     389.25255510     373.46944121       4.226E-02      3.03    <-- DIS
       3     377.90565743     362.85386730       4.148E-02      6.03    <-- DIS
       4     366.94835210     354.41063234       3.538E-02      9.19    <-- DIS
       5     357.69591552     347.39306213       2.966E-02     12.24    <-- DIS
       6     349.97675385     341.41246536       2.508E-02     15.29    <-- DIS
       7     343.46061127     336.21867837       2.154E-02     18.36    <-- DIS
       8     337.87074242     331.64059700       1.879E-02     21.42    <-- DIS
       9     333.00014641     327.55657095       1.662E-02     24.50    <-- DIS
      10     328.69753240     323.87738256       1.488E-02     27.56    <-- DIS
      11     324.85201058     320.53586110       1.347E-02     30.66    <-- DIS
      12     321.38125437     317.48028008       1.229E-02     33.70    <-- DIS
      13     318.22309914     314.67001555       1.129E-02     36.73    <-- DIS
      14     315.32973774     312.07260703       1.044E-02     39.78    <-- DIS
      15     312.66372967     309.66171700       9.694E-03     42.82    <-- DIS
      16     310.19524201     307.41568239       9.042E-03     45.86    <-- DIS
      17     307.90012062     305.31646576       8.462E-03     48.89    <-- DIS
      18     305.75852282     303.34888240       7.943E-03     51.93    <-- DIS
      19     303.75393287     301.50002162       7.476E-03     54.96    <-- DIS
      20     301.87244179     299.75880716       7.051E-03     58.02    <-- DIS
      21     300.10221204     298.11565874       6.664E-03     61.14    <-- DIS
      22     298.43307374     296.56222845       6.308E-03     64.18    <-- DIS
      23     296.85621547     295.09119294       5.981E-03     67.24    <-- DIS
      24     295.36394459     293.69608806       5.679E-03     70.23    <-- DIS
      25     293.94949885     292.37117584       5.398E-03     73.28    <-- DIS
      26     292.60689690     291.11133659       5.137E-03     76.35    <-- DIS
      27     291.33081811     289.91198069       4.894E-03     79.40    <-- DIS
      28     290.11650530     288.76897574       4.666E-03     82.50    <-- DIS
      29     288.95968504     287.67858614       4.453E-03     85.60    <-- DIS
      30     287.85650200     286.63742250       4.253E-03     88.64    <-- DIS
      31     286.80346429     285.64239902       4.065E-03     91.69    <-- DIS
      32     285.79739778     284.69069746       3.887E-03     94.72    <-- DIS
      33     284.83540748     283.77973635       3.720E-03     97.75    <-- DIS
      34     283.91484492     282.90714466       3.562E-03    100.74    <-- DIS
      35     283.03328015     282.07073913       3.412E-03    103.62    <-- DIS
      36     282.18847787     281.26850464       3.271E-03    106.56    <-- DIS
      37     281.37837671     280.49857717       3.137E-03    109.44    <-- DIS
      38     280.60107139     279.75922887       3.009E-03    112.30    <-- DIS
      39     279.85479708     279.04885505       2.888E-03    115.12    <-- DIS
      40     279.13791582     278.36596267       2.773E-03    117.97    <-- DIS
      41     278.44890451     277.70916024       2.664E-03    120.85    <-- DIS
      42     277.78634441     277.07714877       2.560E-03    123.71    <-- DIS
      43     277.14891177     276.46871386       2.460E-03    126.54    <-- DIS
      44     276.53536959     275.88271852       2.366E-03    129.39    <-- DIS
      45     275.94456023     275.31809684       2.275E-03    132.22    <-- DIS
      46     275.37539882     274.77384823       2.189E-03    135.03    <-- DIS
      47     274.82686739     274.24903236       2.107E-03    137.82    <-- DIS
      48     274.29800953     273.74276442       2.028E-03    140.65    <-- DIS
      49     273.78792567     273.25421105       1.953E-03    143.46    <-- DIS
      50     273.29576873     272.78258646       1.881E-03    146.32    <-- DIS
      51     272.82074024     272.32714901       1.812E-03    149.19    <-- DIS
      52     272.36208680     271.88719812       1.747E-03    152.03    <-- DIS
      53     271.91909687     271.46207133       1.684E-03    154.84    <-- DIS
      54     271.49109781     271.05114178       1.623E-03    157.65    <-- DIS
      55     271.07745325     270.65381577       1.565E-03    160.45    <-- DIS
      56     270.67756063     270.26953056       1.510E-03    163.29    <-- DIS
      57     270.29084892     269.89775240       1.456E-03    166.11    <-- DIS
      58     269.91677663     269.53797465       1.405E-03    168.94    <-- DIS
      59     269.55482985     269.18971610       1.356E-03    171.81    <-- DIS
      60     269.20452056     268.85251936       1.309E-03    174.69    <-- DIS
      61     268.86538498     268.52594946       1.264E-03    177.57    <-- DIS
      62     268.53698213     268.20959245       1.221E-03    180.41    <-- DIS
      63     268.21889242     267.90305417       1.179E-03    183.28    <-- DIS
      64     267.91071639     267.60595913       1.139E-03    186.17    <-- DIS
      65     267.61207355     267.31794940       1.100E-03    189.04    <-- DIS
      66     267.32260125     267.03868359       1.063E-03    191.91    <-- DIS
      67     267.04195368     266.76783599       1.028E-03    194.77    <-- DIS
      68     266.76980091     266.50509563       9.932E-04    197.66    <-- DIS
      69     266.50582805     266.25016551       9.602E-04    200.51    <-- DIS
      70     266.24973435     266.00276185       9.285E-04    203.39    <-- DIS
      71     266.00123249     265.76261334       8.979E-04    206.18    <-- DIS
      72     265.76004785     265.52946053       8.684E-04    209.01    <-- DIS
      73     265.52591781     265.30305519       8.400E-04    211.82    <-- DIS
      74     265.29859115     265.08315971       8.127E-04    214.68    <-- DIS
      75     265.07782745     264.86954657       7.864E-04    217.52    <-- DIS
      76     264.86339652     264.66199787       7.610E-04    220.32    <-- DIS
      77     264.65507790     264.46030476       7.365E-04    223.17    <-- DIS
      78     264.45266036     264.26426706       7.129E-04    226.04    <-- DIS
      79     264.25594143     264.07369281       6.901E-04    228.92    <-- DIS
      80     264.06472700     263.88839787       6.682E-04    231.83    <-- DIS
      81     263.87883088     263.70820555       6.470E-04    234.69    <-- DIS
      82     263.69807443     263.53294622       6.266E-04    237.64    <-- DIS
      83     263.52228618     263.36245704       6.069E-04    240.59    <-- DIS
      84     263.35130154     263.19658155       5.878E-04    243.54    <-- DIS
      85     263.18496240     263.03516948       5.695E-04    246.50    <-- DIS
      86     263.02311689     262.87807636       5.517E-04    249.44    <-- DIS
      87     262.86561905     262.72516332       5.346E-04    252.40    <-- DIS
      88     262.71232859     262.57629682       5.181E-04    255.35    <-- DIS
      89     262.56311061     262.43134839       5.021E-04    258.32    <-- DIS
      90     262.41783537     262.29019444       4.866E-04    261.30    <-- DIS
      91     262.27637803     262.15271600       4.717E-04    264.17    <-- DIS
      92     262.13861846     262.01879855       4.573E-04    266.96    <-- DIS
      93     262.00444105     261.88833180       4.434E-04    269.76    <-- DIS
      94     261.87373445     261.76120953       4.299E-04    272.60    <-- DIS
      95     261.74639144     261.63732940       4.168E-04    275.42    <-- DIS
      96     261.62230872     261.51659278       4.042E-04    278.23    <-- DIS
      97     261.50138676     261.39890460       3.921E-04    281.02    <-- DIS
      98     261.38352964     261.28417321       3.803E-04    283.86    <-- DIS
      99     261.26864487     261.17231021       3.689E-04    286.73    <-- DIS
     100     261.15664327     261.06323034       3.578E-04    289.56    <-- DIS
     101     261.04743884     260.95685134       3.471E-04    292.41    <-- DIS
     102     260.94094861     260.85309380       3.368E-04    295.23    <-- DIS
     103     260.83709250     260.75188111       3.268E-04    298.05    <-- DIS
     104     260.73579326     260.65313927       3.171E-04    300.86    <-- DIS
     105     260.63697628     260.55679686       3.077E-04    303.66    <-- DIS
     106     260.54056953     260.46278485       2.986E-04    306.48    <-- DIS
     107     260.44650346     260.37103659       2.898E-04    309.29    <-- DIS
     108     260.35471087     260.28148765       2.813E-04    312.11    <-- DIS
     109     260.26512685     260.19407580       2.731E-04    314.93    <-- DIS
     110     260.17768865     260.10874084       2.651E-04    317.76    <-- DIS
     111     260.09233564     260.02542459       2.573E-04    320.59    <-- DIS
     112     260.00900921     259.94407078       2.498E-04    323.41    <-- DIS
     113     259.92765266     259.86462500       2.425E-04    326.23    <-- DIS
     114     259.84821119     259.78703459       2.355E-04    329.04    <-- DIS
     115     259.77063177     259.71124862       2.287E-04    331.85    <-- DIS
     116     259.69486309     259.63721779       2.220E-04    334.67    <-- DIS
     117     259.62085552     259.56489437       2.156E-04    337.50    <-- DIS
     118     259.54856101     259.49423218       2.094E-04    340.31    <-- DIS
     119     259.47793306     259.42518649       2.033E-04    343.13    <-- DIS
     120     259.40892664     259.35771397       1.975E-04    345.97    <-- DIS
     121     259.34149815     259.29177267       1.918E-04    348.77    <-- DIS
     122     259.27560536     259.22732194       1.863E-04    351.58    <-- DIS
     123     259.21120737     259.16432239       1.809E-04    354.40    <-- DIS
     124     259.14826454     259.10273586       1.757E-04    357.21    <-- DIS
     125     259.08673848     259.04252536       1.707E-04    360.03    <-- DIS
     126     259.02659197     258.98365501       1.658E-04    362.84    <-- DIS
     127     258.96778893     258.92609006       1.610E-04    365.64    <-- DIS
     128     258.91029440     258.86979678       1.564E-04    368.43    <-- DIS
     129     258.85407445     258.81474247       1.520E-04    371.22    <-- DIS
     130     258.79909622     258.76089541       1.476E-04    374.03    <-- DIS
     131     258.74532779     258.70822482       1.434E-04    376.85    <-- DIS
     132     258.69273823     258.65670085       1.393E-04    379.64    <-- DIS
     133     258.64129752     258.60629452       1.354E-04    382.44    <-- DIS
     134     258.59097653     258.55697769       1.315E-04    385.23    <-- DIS
     135     258.54174699     258.50872308       1.277E-04    388.05    <-- DIS
     136     258.49358147     258.46150417       1.241E-04    390.87    <-- DIS
     137     258.44645332     258.41529522       1.206E-04    393.76    <-- DIS
     138     258.40033667     258.37007125       1.171E-04    396.63    <-- DIS
     139     258.35520643     258.32580796       1.138E-04    399.53    <-- DIS
     140     258.31103819     258.28248179       1.106E-04    402.39    <-- DIS
     141     258.26780826     258.24006981       1.074E-04    405.28    <-- DIS
     142     258.22549364     258.19854977       1.044E-04    408.15    <-- DIS
     143     258.18407196     258.15790003       1.014E-04    411.01    <-- DIS
     144     258.14352150     258.11809957       9.849E-05    413.87    <-- DIS
     145     258.10382113     258.07912794       9.568E-05    416.71    <-- DIS
     146     258.06495034     258.04096528       9.295E-05    419.55    <-- DIS
     147     258.02688918     258.00359226       9.030E-05    422.43    <-- DIS
     148     257.98961825     257.96699011       8.772E-05    425.31    <-- DIS
     149     257.95311869     257.93114056       8.521E-05    428.22    <-- DIS
     150     257.91737217     257.89602582       8.277E-05    431.06    <-- DIS
     151     257.88236085     257.86162863       8.040E-05    433.90    <-- DIS
     152     257.84806739     257.82793216       7.810E-05    436.75    <-- DIS
     153     257.81447489     257.79492004       7.585E-05    439.59    <-- DIS
     154     257.78156696     257.76257636       7.367E-05    442.42    <-- DIS
     155     257.74932761     257.73088562       7.156E-05    445.23    <-- DIS
     156     257.71774129     257.69983275       6.949E-05    448.04    <-- DIS
     157     257.68679288     257.66940305       6.749E-05    450.82    <-- DIS
     158     257.65646765     257.63958223       6.554E-05    453.61    <-- DIS
     159     257.62675126     257.61035638       6.364E-05    456.43    <-- DIS
     160     257.59762976     257.58171196       6.180E-05    459.24    <-- DIS
     161     257.56908955     257.55363575       6.000E-05    462.08    <-- DIS
     162     257.54111741     257.52611491       5.826E-05    464.89    <-- DIS
     163     257.51370043     257.49913692       5.656E-05    467.80    <-- DIS
     164     257.48682608     257.47268958       5.490E-05    470.73    <-- DIS
     165     257.46048213     257.44676102       5.330E-05    473.62    <-- DIS
     166     257.43465666     257.42133965       5.173E-05    476.53    <-- DIS
     167     257.40933806     257.39641419       5.021E-05    479.44    <-- DIS
     168     257.38451504     257.37197365       4.873E-05    482.35    <-- DIS
     169     257.36017657     257.34800732       4.729E-05    485.24    <-- DIS
     170     257.33631191     257.32450474       4.588E-05    488.16    <-- DIS
     171     257.31291059     257.30145574       4.452E-05    491.04    <-- DIS
     172     257.28996242     257.27885038       4.319E-05    493.95    <-- DIS
     173     257.26745744     257.25667900       4.190E-05    496.84    <-- DIS
     174     257.24538596     257.23493215       4.064E-05    499.75    <-- DIS
     175     257.22373852     257.21360062       3.941E-05    502.64    <-- DIS
     176     257.20250590     257.19267545       3.822E-05    505.57    <-- DIS
     177     257.18167912     257.17214787       3.706E-05    508.47    <-- DIS
     178     257.16124939     257.15200935       3.593E-05    511.39    <-- DIS
     179     257.14120817     257.13225154       3.483E-05    514.26    <-- DIS
     180     257.12154712     257.11286634       3.376E-05    517.12    <-- DIS
     181     257.10225808     257.09384579       3.272E-05    520.03    <-- DIS
     182     257.08333313     257.07518217       3.171E-05    522.93    <-- DIS
     183     257.06476450     257.05686791       3.072E-05    525.79    <-- DIS
     184     257.04654465     257.03889566       2.976E-05    528.77    <-- DIS
     185     257.02866618     257.02125820       2.882E-05    531.80    <-- DIS
     186     257.01112189     257.00394852       2.791E-05    534.81    <-- DIS
     187     256.99390476     256.98695977       2.702E-05    537.82    <-- DIS
     188     256.97700792     256.97028524       2.616E-05    540.83    <-- DIS
     189     256.96042467     256.95391841       2.532E-05    543.84    <-- DIS
     190     256.94414847     256.93785289       2.450E-05    546.86    <-- DIS
     191     256.92817293     256.92208244       2.371E-05    549.86    <-- DIS
     192     256.91249182     256.90660099       2.293E-05    552.86    <-- DIS
     193     256.89709905     256.89140258       2.217E-05    555.85    <-- DIS
     194     256.88198866     256.87648142       2.144E-05    558.86    <-- DIS
     195     256.86715486     256.86183183       2.072E-05    561.86    <-- DIS
     196     256.85259196     256.84744827       2.003E-05    564.88    <-- DIS
     197     256.83829443     256.83332533       1.935E-05    567.88    <-- DIS
     198     256.82425684     256.81945772       1.869E-05    570.86    <-- DIS
     199     256.81047392     256.80584026       1.804E-05    573.87    <-- DIS
     200     256.79694048     256.79246792       1.742E-05    576.92    <-- DIS
     201     256.78365149     256.77933576       1.681E-05    579.93    <-- DIS
     202     256.77060200     256.76643895       1.621E-05    582.92    <-- DIS
     203     256.75778719     256.75377278       1.564E-05    585.92    <-- DIS
     204     256.74520235     256.74133264       1.507E-05    588.90    <-- DIS
     205     256.73284288     256.72911403       1.452E-05    591.94    <-- DIS
     206     256.72070426     256.71711255       1.399E-05    594.94    <-- DIS
     207     256.70878209     256.70532389       1.347E-05    597.97    <-- DIS
     208     256.69707208     256.69374384       1.297E-05    601.00    <-- DIS
     209     256.68557001     256.68236828       1.247E-05    604.01    <-- DIS
     210     256.67427178     256.67119320       1.199E-05    607.03    <-- DIS
     211     256.66317335     256.66021466       1.153E-05    610.03    <-- DIS
     212     256.65227079     256.64942880       1.107E-05    613.09    <-- DIS
     213     256.64156027     256.63883187       1.063E-05    616.14    <-- DIS
     214     256.63103801     256.62842018       1.020E-05    619.19    <-- DIS
     215     256.62070034     256.61819013       9.782E-06    622.30    <-- DIS
     216     256.61054366     256.60813819       9.374E-06    625.36    <-- DIS
     217     256.60056444     256.59826093       8.977E-06    628.50    <-- DIS
     218     256.59075926     256.58855497       8.591E-06    631.57    <-- DIS
     219     256.58112472     256.57901702       8.215E-06    634.56    <-- DIS
     220     256.57165755     256.56964383       7.849E-06    637.56    <-- DIS
     221     256.56235451     256.56043226       7.492E-06    640.59    <-- DIS
     222     256.55321245     256.55137921       7.146E-06    643.63    <-- DIS
     223     256.54422828     256.54248166       6.808E-06    646.65    <-- DIS
     224     256.53539899     256.53373664       6.480E-06    649.68    <-- DIS
     225     256.52672161     256.52514127       6.161E-06    652.70    <-- DIS
     226     256.51819325     256.51669270       5.850E-06    655.72    <-- DIS
     227     256.50981107     256.50838816       5.547E-06    658.77    <-- DIS
     228     256.50157231     256.50022493       5.253E-06    661.84    <-- DIS
     229     256.49347426     256.49220035       4.967E-06    664.92    <-- DIS
     230     256.48551425     256.48431181       4.688E-06    667.99    <-- DIS
     231     256.47768968     256.47655677       4.417E-06    671.01    <-- DIS
     232     256.46999801     256.46893273       4.154E-06    674.05    <-- DIS
     233     256.46243674     256.46143724       3.897E-06    677.11    <-- DIS
     234     256.45500344     256.45406791       3.648E-06    680.13    <-- DIS
     235     256.44769572     256.44682239       3.405E-06    683.12    <-- DIS
     236     256.44051122     256.43969839       3.170E-06    686.17    <-- DIS
     237     256.43344767     256.43269366       2.940E-06    689.23    <-- DIS
     238     256.42650282     256.42580600       2.717E-06    692.31    <-- DIS
     239     256.41967446     256.41903325       2.501E-06    695.37    <-- DIS
     240     256.41296045     256.41237329       2.290E-06    698.42    <-- DIS
     241     256.40635868     256.40582406       2.085E-06    701.47    <-- DIS
     242     256.39986708     256.39938352       1.886E-06    704.52    <-- DIS
     243     256.39348362     256.39304970       1.692E-06    707.50    <-- DIS
     244     256.38720633     256.38682064       1.504E-06    710.45    <-- DIS
     245     256.38103326     256.38069444       1.322E-06    713.43    <-- DIS
     246     256.37496251     256.37466922       1.144E-06    716.46    <-- DIS
     247     256.36899222     256.36874317       9.715E-07    719.48    <-- DIS
     248     256.36312056     256.36291447       8.039E-07    722.49    <-- DIS
     249     256.35734573     256.35718139       6.411E-07    725.52    <-- DIS
     250     256.35166599     256.35154218       4.830E-07    728.53    <-- DIS
     251     256.34607961     256.34599517       3.294E-07    731.56    <-- DIS
     252     256.34058492     256.34053869       1.803E-07    734.58    <-- DIS
     253     256.33518026     256.33517113       3.561E-08    737.59    <-- DIS
     254     256.32986401     256.32989089      -1.049E-07    740.58    <-- DIS
     255     256.32463458     256.32469642      -2.413E-07    743.60    <-- DIS
     256     256.31949043     256.31958619      -3.736E-07    746.67    <-- DIS
     257     256.31443002     256.31455870      -5.020E-07    749.68    <-- DIS
     258     256.30945187     256.30961248      -6.266E-07    752.72    <-- DIS
     259     256.30455451     256.30474609      -7.475E-07    755.75    <-- DIS
     260     256.29973651     256.29995812      -8.647E-07    758.78    <-- DIS
     261     256.29499645     256.29524719      -9.783E-07    761.81    <-- DIS
     262     256.29033296     256.29061193      -1.089E-06    764.85    <-- DIS
     263     256.28574468     256.28605102      -1.195E-06    767.89    <-- DIS
     264     256.28123029     256.28156316      -1.299E-06    770.89    <-- DIS
     265     256.27678849     256.27714705      -1.399E-06    773.95    <-- DIS
     266     256.27241799     256.27280146      -1.496E-06    776.99    <-- DIS
     267     256.26811756     256.26852514      -1.590E-06    779.95    <-- DIS
     268     256.26388596     256.26431689      -1.682E-06    782.89    <-- DIS
     269     256.25972199     256.26017553      -1.770E-06    785.87    <-- DIS
     270     256.25562447     256.25609989      -1.855E-06    788.86    <-- DIS
     271     256.25159225     256.25208883      -1.938E-06    791.85    <-- DIS
     272     256.24762418     256.24814124      -2.018E-06    794.84    <-- DIS
     273     256.24371915     256.24425602      -2.095E-06    797.86    <-- DIS
     274     256.23987607     256.24043210      -2.170E-06    800.90    <-- DIS
     275     256.23609388     256.23666841      -2.242E-06    803.91    <-- DIS
     276     256.23237151     256.23296393      -2.312E-06    806.91    <-- DIS
     277     256.22870794     256.22931764      -2.380E-06    809.93    <-- DIS
     278     256.22510215     256.22572854      -2.445E-06    812.91    <-- DIS
     279     256.22155316     256.22219566      -2.508E-06    815.92    <-- DIS
     280     256.21805998     256.21871803      -2.568E-06    818.89    <-- DIS
     281     256.21462167     256.21529472      -2.627E-06    821.87    <-- DIS
     282     256.21123729     256.21192479      -2.683E-06    824.87    <-- DIS
     283     256.20790591     256.20860735      -2.738E-06    827.87    <-- DIS
     284     256.20462663     256.20534150      -2.790E-06    830.87    <-- DIS
     285     256.20139856     256.20212637      -2.841E-06    833.84    <-- DIS
     286     256.19822085     256.19896110      -2.889E-06    836.83    <-- DIS
     287     256.19509262     256.19584486      -2.936E-06    839.81    <-- DIS
     288     256.19201305     256.19277681      -2.981E-06    842.79    <-- DIS
     289     256.18898132     256.18975615      -3.024E-06    845.76    <-- DIS
     290     256.18599661     256.18678207      -3.066E-06    848.74    <-- DIS
     291     256.18305813     256.18385381      -3.106E-06    851.72    <-- DIS
     292     256.18016512     256.18097059      -3.144E-06    854.70    <-- DIS
     293     256.17731679     256.17813166      -3.181E-06    857.69    <-- DIS
     294     256.17451241     256.17533628      -3.216E-06    860.67    <-- DIS
     295     256.17175124     256.17258372      -3.250E-06    863.61    <-- DIS
     296     256.16903256     256.16987328      -3.282E-06    866.58    <-- DIS
     297     256.16635565     256.16720425      -3.313E-06    869.55    <-- DIS
     298     256.16371983     256.16457595      -3.342E-06    872.53    <-- DIS
     299     256.16112440     256.16198771      -3.370E-06    875.51    <-- DIS
     300     256.15856871     256.15943885      -3.397E-06    878.51    <-- DIS
     301     256.15605208     256.15692874      -3.422E-06    881.48    <-- DIS
     302     256.15357388     256.15445673      -3.447E-06    884.42    <-- DIS
     303     256.15113346     256.15202220      -3.470E-06    887.37    <-- DIS
     304     256.14873021     256.14962453      -3.491E-06    890.39    <-- DIS
     305     256.14636351     256.14726312      -3.512E-06    893.39    <-- DIS
     306     256.14403276     256.14493737      -3.532E-06    896.39    <-- DIS
     307     256.14173737     256.14264669      -3.550E-06    899.40    <-- DIS
     308     256.13947676     256.14039053      -3.567E-06    902.41    <-- DIS
     309     256.13725036     256.13816831      -3.584E-06    905.43    <-- DIS
     310     256.13505761     256.13597948      -3.599E-06    908.44    <-- DIS
     311     256.13289796     256.13382350      -3.614E-06    911.45    <-- DIS
     312     256.13077087     256.13169984      -3.627E-06    914.46    <-- DIS
     313     256.12867581     256.12960797      -3.639E-06    917.48    <-- DIS
     314     256.12661226     256.12754737      -3.651E-06    920.51    <-- DIS
     315     256.12457970     256.12551755      -3.662E-06    923.53    <-- DIS
     316     256.12257765     256.12351800      -3.671E-06    926.53    <-- DIS
     317     256.12060559     256.12154824      -3.680E-06    929.51    <-- DIS
     318     256.11866305     256.11960779      -3.689E-06    932.48    <-- DIS
     319     256.11674955     256.11769618      -3.696E-06    935.46    <-- DIS
     320     256.11486462     256.11581294      -3.703E-06    938.43    <-- DIS
     321     256.11300780     256.11395762      -3.709E-06    941.40    <-- DIS
     322     256.11117864     256.11212978      -3.714E-06    944.38    <-- DIS
     323     256.10937670     256.11032897      -3.718E-06    947.33    <-- DIS
     324     256.10760154     256.10855476      -3.722E-06    950.28    <-- DIS
     325     256.10585272     256.10680673      -3.725E-06    953.27    <-- DIS
     326     256.10412984     256.10508447      -3.727E-06    956.24    <-- DIS
     327     256.10243247     256.10338756      -3.729E-06    959.16    <-- DIS
     328     256.10076021     256.10171559      -3.731E-06    962.09    <-- DIS
     329     256.09911265     256.10006819      -3.731E-06    965.00    <-- DIS
     330     256.09748941     256.09844495      -3.731E-06    967.91    <-- DIS
     331     256.09589010     256.09684550      -3.731E-06    970.84    <-- DIS
     332     256.09431435     256.09526945      -3.729E-06    973.75    <-- DIS
     333     256.09276176     256.09371645      -3.728E-06    976.69    <-- DIS
     334     256.09123199     256.09218612      -3.726E-06    979.60    <-- DIS
     335     256.08972467     256.09067812      -3.723E-06    982.52    <-- DIS
     336     256.08823944     256.08919209      -3.720E-06    985.43    <-- DIS
     337     256.08677596     256.08772769      -3.716E-06    988.37    <-- DIS
     338     256.08533389     256.08628457      -3.712E-06    991.29    <-- DIS
     339     256.08391289     256.08486241      -3.708E-06    994.20    <-- DIS
     340     256.08251262     256.08346087      -3.703E-06    997.13    <-- DIS
     341     256.08113277     256.08207965      -3.698E-06   1000.07    <-- DIS
     342     256.07977301     256.08071841      -3.692E-06   1002.99    <-- DIS
     343     256.07843303     256.07937686      -3.686E-06   1005.90    <-- DIS
     344     256.07711252     256.07805467      -3.679E-06   1008.84    <-- DIS
     345     256.07581118     256.07675156      -3.672E-06   1011.77    <-- DIS
     346     256.07452871     256.07546723      -3.665E-06   1014.70    <-- DIS
     347     256.07326482     256.07420138      -3.657E-06   1017.61    <-- DIS
     348     256.07201921     256.07295374      -3.649E-06   1020.53    <-- DIS
     349     256.07079161     256.07172401      -3.641E-06   1023.45    <-- DIS
     350     256.06958173     256.07051193      -3.633E-06   1026.40    <-- DIS
     351     256.06838929     256.06931723      -3.624E-06   1029.32    <-- DIS
     352     256.06721405     256.06813962      -3.615E-06   1032.25    <-- DIS
     353     256.06605571     256.06697886      -3.605E-06   1035.17    <-- DIS
     354     256.06491403     256.06583469      -3.595E-06   1038.10    <-- DIS
     355     256.06378875     256.06470684      -3.585E-06   1041.04    <-- DIS
     356     256.06267961     256.06359507      -3.575E-06   1043.99    <-- DIS
     357     256.06158638     256.06249914      -3.565E-06   1046.93    <-- DIS
     358     256.06050879     256.06141880      -3.554E-06   1049.86    <-- DIS
     359     256.05944662     256.06035382      -3.543E-06   1052.79    <-- DIS
     360     256.05839963     256.05930395      -3.532E-06   1055.74    <-- DIS
     361     256.05736758     256.05826898      -3.520E-06   1058.67    <-- DIS
     362     256.05635025     256.05724867      -3.509E-06   1061.61    <-- DIS
     363     256.05534742     256.05624281      -3.497E-06   1064.54    <-- DIS
     364     256.05435886     256.05525117      -3.485E-06   1067.48    <-- DIS
     365     256.05338435     256.05427354      -3.473E-06   1070.41    <-- DIS
     366     256.05242369     256.05330970      -3.460E-06   1073.37    <-- DIS
     367     256.05147666     256.05235945      -3.448E-06   1076.36    <-- DIS
     368     256.05054305     256.05142258      -3.435E-06   1079.30    <-- DIS
     369     256.04962266     256.05049890      -3.422E-06   1082.24    <-- DIS
     370     256.04871530     256.04958820      -3.409E-06   1085.22    <-- DIS
     371     256.04782076     256.04869029      -3.396E-06   1088.14    <-- DIS
     372     256.04693885     256.04780497      -3.383E-06   1091.10    <-- DIS
     373     256.04606939     256.04693206      -3.369E-06   1094.11    <-- DIS
     374     256.04521218     256.04607137      -3.356E-06   1097.04    <-- DIS
     375     256.04436704     256.04522272      -3.342E-06   1099.98    <-- DIS
     376     256.04353378     256.04438593      -3.328E-06   1102.97    <-- DIS
     377     256.04271224     256.04356082      -3.314E-06   1105.95    <-- DIS
     378     256.04190223     256.04274721      -3.300E-06   1108.92    <-- DIS
     379     256.04110358     256.04194495      -3.286E-06   1111.90    <-- DIS
     380     256.04031613     256.04115385      -3.272E-06   1114.87    <-- DIS
     381     256.03953970     256.04037375      -3.257E-06   1117.85    <-- DIS
     382     256.03877412     256.03960449      -3.243E-06   1120.79    <-- DIS
     383     256.03801925     256.03884590      -3.229E-06   1123.77    <-- DIS
     384     256.03727492     256.03809784      -3.214E-06   1126.74    <-- DIS
     385     256.03654097     256.03736014      -3.199E-06   1129.64    <-- DIS
     386     256.03581724     256.03663265      -3.185E-06   1132.60    <-- DIS
     387     256.03510359     256.03591521      -3.170E-06   1135.58    <-- DIS
     388     256.03439987     256.03520769      -3.155E-06   1138.56    <-- DIS
     389     256.03370593     256.03450994      -3.140E-06   1141.56    <-- DIS
     390     256.03302163     256.03382181      -3.125E-06   1144.53    <-- DIS
     391     256.03234681     256.03314315      -3.110E-06   1147.54    <-- DIS
     392     256.03168135     256.03247384      -3.095E-06   1150.54    <-- DIS
     393     256.03102511     256.03181374      -3.080E-06   1153.49    <-- DIS
     394     256.03037794     256.03116270      -3.065E-06   1156.48    <-- DIS
     395     256.02973972     256.03052059      -3.050E-06   1159.47    <-- DIS
     396     256.02911031     256.02988730      -3.035E-06   1162.46    <-- DIS
     397     256.02848959     256.02926268      -3.020E-06   1165.45    <-- DIS
     398     256.02787742     256.02864661      -3.004E-06   1168.43    <-- DIS
     399     256.02727369     256.02803897      -2.989E-06   1171.40    <-- DIS
     400     256.02667826     256.02743963      -2.974E-06   1174.40    <-- DIS
     401     256.02609103     256.02684847      -2.958E-06   1177.38    <-- DIS
     402     256.02551186     256.02626538      -2.943E-06   1180.35    <-- DIS
     403     256.02494063     256.02569023      -2.928E-06   1183.32    <-- DIS
     404     256.02437725     256.02512291      -2.912E-06   1186.29    <-- DIS
     405     256.02382158     256.02456331      -2.897E-06   1189.19    <-- DIS
     406     256.02327352     256.02401132      -2.882E-06   1192.08    <-- DIS
     407     256.02273295     256.02346683      -2.866E-06   1194.98    <-- DIS
     408     256.02219977     256.02292972      -2.851E-06   1197.92    <-- DIS
     409     256.02167388     256.02239990      -2.836E-06   1200.89    <-- DIS
     410     256.02115516     256.02187725      -2.820E-06   1203.80    <-- DIS
     411     256.02064351     256.02136167      -2.805E-06   1206.78    <-- DIS
     412     256.02013883     256.02085307      -2.790E-06   1209.75    <-- DIS
     413     256.01964102     256.02035133      -2.774E-06   1212.65    <-- DIS
     414     256.01914998     256.01985637      -2.759E-06   1215.61    <-- DIS
     415     256.01866561     256.01936809      -2.744E-06   1218.52    <-- DIS
     416     256.01818781     256.01888639      -2.729E-06   1221.49    <-- DIS
     417     256.01771650     256.01841117      -2.713E-06   1224.49    <-- DIS
     418     256.01725157     256.01794234      -2.698E-06   1227.45    <-- DIS
     419     256.01679294     256.01747982      -2.683E-06   1230.39    <-- DIS
     420     256.01634052     256.01702351      -2.668E-06   1233.32    <-- DIS
     421     256.01589421     256.01657332      -2.653E-06   1236.29    <-- DIS
     422     256.01545393     256.01612917      -2.637E-06   1239.22    <-- DIS
     423     256.01501960     256.01569097      -2.622E-06   1242.16    <-- DIS
     424     256.01459112     256.01525863      -2.607E-06   1245.12    <-- DIS
     425     256.01416842     256.01483208      -2.592E-06   1248.05    <-- DIS
     426     256.01375141     256.01441123      -2.577E-06   1251.09    <-- DIS
     427     256.01334001     256.01399600      -2.562E-06   1254.05    <-- DIS
     428     256.01293414     256.01358630      -2.547E-06   1257.00    <-- DIS
     429     256.01253373     256.01318207      -2.532E-06   1259.98    <-- DIS
     430     256.01213869     256.01278323      -2.518E-06   1263.00    <-- DIS
     431     256.01174894     256.01238969      -2.503E-06   1266.00    <-- DIS
     432     256.01136442     256.01200138      -2.488E-06   1268.99    <-- DIS
     433     256.01098505     256.01161824      -2.473E-06   1271.99    <-- DIS
     434     256.01061076     256.01124018      -2.459E-06   1274.94    <-- DIS
     435     256.01024147     256.01086714      -2.444E-06   1277.87    <-- DIS
     436     256.00987712     256.01049905      -2.429E-06   1280.82    <-- DIS
     437     256.00951763     256.01013583      -2.415E-06   1283.78    <-- DIS
     438     256.00916293     256.00977741      -2.400E-06   1286.72    <-- DIS
     439     256.00881296     256.00942374      -2.386E-06   1289.67    <-- DIS
     440     256.00846766     256.00907474      -2.371E-06   1292.63    <-- DIS
     441     256.00812695     256.00873035      -2.357E-06   1295.57    <-- DIS
     442     256.00779077     256.00839051      -2.343E-06   1298.51    <-- DIS
     443     256.00745906     256.00805514      -2.328E-06   1301.44    <-- DIS
     444     256.00713175     256.00772419      -2.314E-06   1304.34    <-- DIS
     445     256.00680879     256.00739760      -2.300E-06   1307.28    <-- DIS
     446     256.00649011     256.00707530      -2.286E-06   1310.21    <-- DIS
     447     256.00617565     256.00675724      -2.272E-06   1313.12    <-- DIS
     448     256.00586536     256.00644336      -2.258E-06   1316.04    <-- DIS
     449     256.00555917     256.00613360      -2.244E-06   1318.97    <-- DIS
     450     256.00525702     256.00582789      -2.230E-06   1321.90    <-- DIS
     451     256.00495887     256.00552620      -2.216E-06   1324.80    <-- DIS
     452     256.00466466     256.00522845      -2.202E-06   1327.71    <-- DIS
     453     256.00437432     256.00493460      -2.189E-06   1330.64    <-- DIS
     454     256.00408782     256.00464459      -2.175E-06   1333.56    <-- DIS
     455     256.00380508     256.00435837      -2.161E-06   1336.50    <-- DIS
     456     256.00352607     256.00407589      -2.148E-06   1339.43    <-- DIS
     457     256.00325073     256.00379709      -2.134E-06   1342.40    <-- DIS
     458     256.00297901     256.00352192      -2.121E-06   1345.31    <-- DIS
     459     256.00271085     256.00325034      -2.107E-06   1348.21    <-- DIS
     460     256.00244622     256.00298229      -2.094E-06   1351.11    <-- DIS
     461     256.00218505     256.00271773      -2.081E-06   1354.03    <-- DIS
     462     256.00192731     256.00245661      -2.068E-06   1356.96    <-- DIS
     463     256.00167295     256.00219887      -2.054E-06   1359.88    <-- DIS
     464     256.00142191     256.00194449      -2.041E-06   1362.81    <-- DIS
     465     256.00117416     256.00169340      -2.028E-06   1365.75    <-- DIS
     466     256.00092964     256.00144556      -2.015E-06   1368.67    <-- DIS
     467     256.00068832     256.00120093      -2.002E-06   1371.59    <-- DIS
     468     256.00045015     256.00095947      -1.990E-06   1374.52    <-- DIS
     469     256.00021508     256.00072113      -1.977E-06   1377.46    <-- DIS
     470     255.99998307     256.00048587      -1.964E-06   1380.40    <-- DIS
     471     255.99975409     256.00025365      -1.951E-06   1383.33    <-- DIS
     472     255.99952809     256.00002443      -1.939E-06   1386.23    <-- DIS
     473     255.99930503     255.99979815      -1.926E-06   1389.17    <-- DIS
     474     255.99908486     255.99957480      -1.914E-06   1392.08    <-- DIS
     475     255.99886756     255.99935432      -1.901E-06   1395.02    <-- DIS
     476     255.99865308     255.99913667      -1.889E-06   1397.93    <-- DIS
     477     255.99844138     255.99892183      -1.877E-06   1400.87    <-- DIS
     478     255.99823242     255.99870974      -1.865E-06   1403.81    <-- DIS
     479     255.99802617     255.99850038      -1.852E-06   1406.71    <-- DIS
     480     255.99782259     255.99829370      -1.840E-06   1409.66    <-- DIS
     481     255.99762164     255.99808967      -1.828E-06   1412.60    <-- DIS
     482     255.99742329     255.99788826      -1.816E-06   1415.52    <-- DIS
     483     255.99722750     255.99768943      -1.804E-06   1418.49    <-- DIS
     484     255.99703424     255.99749313      -1.793E-06   1421.46    <-- DIS
     485     255.99684347     255.99729935      -1.781E-06   1424.37    <-- DIS
     486     255.99665516     255.99710805      -1.769E-06   1427.31    <-- DIS
     487     255.99646928     255.99691918      -1.757E-06   1430.24    <-- DIS
     488     255.99628579     255.99673273      -1.746E-06   1433.19    <-- DIS
     489     255.99610466     255.99654865      -1.734E-06   1436.14    <-- DIS
     490     255.99592587     255.99636692      -1.723E-06   1439.07    <-- DIS
     491     255.99574937     255.99618750      -1.711E-06   1442.01    <-- DIS
     492     255.99557513     255.99601036      -1.700E-06   1444.97    <-- DIS
     493     255.99540313     255.99583548      -1.689E-06   1447.95    <-- DIS
     494     255.99523334     255.99566282      -1.678E-06   1450.88    <-- DIS
     495     255.99506573     255.99549235      -1.667E-06   1453.78    <-- DIS
     496     255.99490026     255.99532405      -1.655E-06   1456.69    <-- DIS
     497     255.99473691     255.99515788      -1.644E-06   1459.60    <-- DIS
     498     255.99457565     255.99499381      -1.633E-06   1462.51    <-- DIS
     499     255.99441645     255.99483182      -1.623E-06   1465.39    <-- DIS
     500     255.99425928     255.99467188      -1.612E-06   1468.29    <-- DIS
     501     255.99410412     255.99451397      -1.601E-06   1471.20    <-- DIS
     502     255.99395094     255.99435805      -1.590E-06   1474.11    <-- DIS
     503     255.99379972     255.99420410      -1.580E-06   1476.99    <-- DIS
     504     255.99365042     255.99405209      -1.569E-06   1479.85    <-- DIS
     505     255.99350302     255.99390200      -1.559E-06   1482.76    <-- DIS
     506     255.99335750     255.99375381      -1.548E-06   1485.66    <-- DIS
     507     255.99321383     255.99360748      -1.538E-06   1488.54    <-- DIS
     508     255.99307199     255.99346299      -1.527E-06   1491.44    <-- DIS
     509     255.99293195     255.99332032      -1.517E-06   1494.32    <-- DIS
     510     255.99279369     255.99317944      -1.507E-06   1497.19    <-- DIS
     511     255.99265718     255.99304033      -1.497E-06   1500.07    <-- DIS
     512     255.99252240     255.99290297      -1.487E-06   1502.94    <-- DIS
     513     255.99238933     255.99276734      -1.477E-06   1505.85    <-- DIS
     514     255.99225795     255.99263340      -1.467E-06   1508.74    <-- DIS
     515     255.99212823     255.99250115      -1.457E-06   1511.58    <-- DIS
     516     255.99200015     255.99237055      -1.447E-06   1514.43    <-- DIS
     517     255.99187369     255.99224158      -1.437E-06   1517.28    <-- DIS
     518     255.99174883     255.99211423      -1.427E-06   1520.13    <-- DIS
     519     255.99162555     255.99198847      -1.418E-06   1522.98    <-- DIS
     520     255.99150382     255.99186428      -1.408E-06   1525.82    <-- DIS
     521     255.99138362     255.99174164      -1.399E-06   1528.62    <-- DIS
     522     255.99126494     255.99162053      -1.389E-06   1531.43    <-- DIS
     523     255.99114776     255.99150093      -1.380E-06   1534.29    <-- DIS
     524     255.99103205     255.99138282      -1.370E-06   1537.11    <-- DIS
     525     255.99091780     255.99126618      -1.361E-06   1539.95    <-- DIS
     526     255.99080498     255.99115100      -1.352E-06   1542.80    <-- DIS
     527     255.99069359     255.99103724      -1.342E-06   1545.62    <-- DIS
     528     255.99058359     255.99092490      -1.333E-06   1548.46    <-- DIS
     529     255.99047497     255.99081396      -1.324E-06   1551.31    <-- DIS
     530     255.99036772     255.99070439      -1.315E-06   1554.16    <-- DIS
     531     255.99026181     255.99059619      -1.306E-06   1557.03    <-- DIS
     532     255.99015722     255.99048932      -1.297E-06   1559.88    <-- DIS
     533     255.99005395     255.99038378      -1.288E-06   1562.74    <-- DIS
     534     255.98995197     255.99027955      -1.280E-06   1565.59    <-- DIS
     535     255.98985127     255.99017660      -1.271E-06   1568.45    <-- DIS
     536     255.98975182     255.99007493      -1.262E-06   1571.33    <-- DIS
     537     255.98965362     255.98997452      -1.254E-06   1574.18    <-- DIS
     538     255.98955664     255.98987535      -1.245E-06   1577.03    <-- DIS
     539     255.98946088     255.98977740      -1.236E-06   1579.88    <-- DIS
     540     255.98936631     255.98968066      -1.228E-06   1582.74    <-- DIS
     541     255.98927292     255.98958511      -1.220E-06   1585.55    <-- DIS
     542     255.98918069     255.98949074      -1.211E-06   1588.40    <-- DIS
     543     255.98908961     255.98939753      -1.203E-06   1591.26    <-- DIS
     544     255.98899966     255.98930547      -1.195E-06   1594.13    <-- DIS
     545     255.98891084     255.98921455      -1.186E-06   1597.05    <-- DIS
     546     255.98882311     255.98912474      -1.178E-06   1599.91    <-- DIS
     547     255.98873648     255.98903603      -1.170E-06   1602.78    <-- DIS
     548     255.98865092     255.98894841      -1.162E-06   1605.66    <-- DIS
     549     255.98856643     255.98886187      -1.154E-06   1608.53    <-- DIS
     550     255.98848298     255.98877639      -1.146E-06   1611.41    <-- DIS
     551     255.98840057     255.98869196      -1.138E-06   1614.26    <-- DIS
     552     255.98831918     255.98860856      -1.130E-06   1617.12    <-- DIS
     553     255.98823880     255.98852619      -1.123E-06   1619.98    <-- DIS
     554     255.98815941     255.98844482      -1.115E-06   1622.84    <-- DIS
     555     255.98808100     255.98836445      -1.107E-06   1625.67    <-- DIS
     556     255.98800357     255.98828506      -1.100E-06   1628.52    <-- DIS
     557     255.98792709     255.98820664      -1.092E-06   1631.35    <-- DIS
     558     255.98785155     255.98812917      -1.085E-06   1634.23    <-- DIS
     559     255.98777695     255.98805265      -1.077E-06   1637.12    <-- DIS
     560     255.98770327     255.98797707      -1.070E-06   1639.99    <-- DIS
     561     255.98763049     255.98790241      -1.062E-06   1642.93    <-- DIS
     562     255.98755862     255.98782865      -1.055E-06   1645.87    <-- DIS
     563     255.98748763     255.98775579      -1.048E-06   1648.79    <-- DIS
     564     255.98741751     255.98768382      -1.040E-06   1651.73    <-- DIS
     565     255.98734826     255.98761273      -1.033E-06   1654.72    <-- DIS
     566     255.98727985     255.98754250      -1.026E-06   1657.75    <-- DIS
     567     255.98721229     255.98747312      -1.019E-06   1660.71    <-- DIS
     568     255.98714556     255.98740458      -1.012E-06   1663.73    <-- DIS
     569     255.98707965     255.98733688      -1.005E-06   1666.76    <-- DIS
     570     255.98701454     255.98726999      -9.979E-07   1669.77    <-- DIS
     571     255.98695024     255.98720392      -9.910E-07   1672.80    <-- DIS
     572     255.98688672     255.98713865      -9.841E-07   1675.81    <-- DIS
     573     255.98682399     255.98707417      -9.773E-07   1678.83    <-- DIS
     574     255.98676202     255.98701046      -9.705E-07   1681.91    <-- DIS
     575     255.98670080     255.98694753      -9.638E-07   1684.88    <-- DIS
     576     255.98664034     255.98688536      -9.571E-07   1687.91    <-- DIS
     577     255.98658062     255.98682394      -9.505E-07   1690.90    <-- DIS
     578     255.98652163     255.98676326      -9.439E-07   1693.87    <-- DIS
     579     255.98646335     255.98670331      -9.374E-07   1696.83    <-- DIS
     580     255.98640579     255.98664408      -9.309E-07   1699.79    <-- DIS
     581     255.98634893     255.98658557      -9.244E-07   1702.75    <-- DIS
     582     255.98629277     255.98652777      -9.180E-07   1705.77    <-- DIS
     583     255.98623729     255.98647065      -9.116E-07   1708.75    <-- DIS
     584     255.98618248     255.98641423      -9.053E-07   1711.71    <-- DIS
     585     255.98612834     255.98635849      -8.990E-07   1714.70    <-- DIS
     586     255.98607487     255.98630341      -8.928E-07   1717.66    <-- DIS
     587     255.98602204     255.98624900      -8.866E-07   1720.62    <-- DIS
     588     255.98596985     255.98619523      -8.804E-07   1723.58    <-- DIS
     589     255.98591830     255.98614212      -8.743E-07   1726.54    <-- DIS
     590     255.98586738     255.98608964      -8.683E-07   1729.52    <-- DIS
     591     255.98581707     255.98603779      -8.622E-07   1732.50    <-- DIS
     592     255.98576738     255.98598656      -8.562E-07   1735.46    <-- DIS
     593     255.98571828     255.98593594      -8.503E-07   1738.40    <-- DIS
     594     255.98566978     255.98588593      -8.444E-07   1741.31    <-- DIS
     595     255.98562187     255.98583652      -8.385E-07   1744.24    <-- DIS
     596     255.98557454     255.98578770      -8.327E-07   1747.17    <-- DIS
     597     255.98552779     255.98573946      -8.269E-07   1750.11    <-- DIS
     598     255.98548159     255.98569180      -8.212E-07   1753.06    <-- DIS
     599     255.98543596     255.98564470      -8.154E-07   1756.00    <-- DIS
     600     255.98539088     255.98559817      -8.098E-07   1758.98    <-- DIS
     601     255.98534634     255.98555219      -8.041E-07   1761.90    <-- DIS
     602     255.98530234     255.98550676      -7.986E-07   1764.85    <-- DIS
     603     255.98525888     255.98546187      -7.930E-07   1767.74    <-- DIS
     604     255.98521593     255.98541752      -7.875E-07   1770.68    <-- DIS
     605     255.98517351     255.98537369      -7.820E-07   1773.61    <-- DIS
     606     255.98513159     255.98533039      -7.766E-07   1776.64    <-- DIS
     607     255.98509018     255.98528759      -7.712E-07   1779.64    <-- DIS
     608     255.98504927     255.98524531      -7.658E-07   1782.57    <-- DIS
     609     255.98500885     255.98520353      -7.605E-07   1785.50    <-- DIS
     610     255.98496892     255.98516224      -7.552E-07   1788.47    <-- DIS
     611     255.98492947     255.98512144      -7.499E-07   1791.43    <-- DIS
     612     255.98489049     255.98508113      -7.447E-07   1794.36    <-- DIS
     613     255.98485198     255.98504129      -7.395E-07   1797.31    <-- DIS
     614     255.98481393     255.98500193      -7.344E-07   1800.26    <-- DIS
     615     255.98477634     255.98496303      -7.293E-07   1803.18    <-- DIS
     616     255.98473920     255.98492459      -7.242E-07   1806.13    <-- DIS
     617     255.98470251     255.98488661      -7.192E-07   1809.07    <-- DIS
     618     255.98466625     255.98484907      -7.142E-07   1811.99    <-- DIS
     619     255.98463043     255.98481198      -7.092E-07   1814.95    <-- DIS
     620     255.98459504     255.98477532      -7.043E-07   1817.87    <-- DIS
     621     255.98456007     255.98473910      -6.994E-07   1820.79    <-- DIS
     622     255.98452552     255.98470331      -6.945E-07   1823.72    <-- DIS
     623     255.98449138     255.98466793      -6.897E-07   1826.66    <-- DIS
     624     255.98445765     255.98463297      -6.849E-07   1829.60    <-- DIS
     625     255.98442433     255.98459843      -6.801E-07   1832.54    <-- DIS
     626     255.98439140     255.98456429      -6.754E-07   1835.51    <-- DIS
     627     255.98435886     255.98453055      -6.707E-07   1838.41    <-- DIS
     628     255.98432672     255.98449721      -6.660E-07   1841.31    <-- DIS
     629     255.98429495     255.98446426      -6.614E-07   1844.22    <-- DIS
     630     255.98426357     255.98443169      -6.568E-07   1847.14    <-- DIS
     631     255.98423255     255.98439951      -6.522E-07   1850.01    <-- DIS
     632     255.98420191     255.98436771      -6.477E-07   1852.95    <-- DIS
     633     255.98417163     255.98433628      -6.432E-07   1855.87    <-- DIS
     634     255.98414172     255.98430521      -6.387E-07   1858.85    <-- DIS
     635     255.98411215     255.98427451      -6.343E-07   1861.77    <-- DIS
     636     255.98408294     255.98424417      -6.299E-07   1864.72    <-- DIS
     637     255.98405408     255.98421419      -6.255E-07   1867.63    <-- DIS
     638     255.98402556     255.98418455      -6.211E-07   1870.56    <-- DIS
     639     255.98399737     255.98415527      -6.168E-07   1873.50    <-- DIS
     640     255.98396953     255.98412632      -6.125E-07   1876.43    <-- DIS
     641     255.98394201     255.98409771      -6.083E-07   1879.32    <-- DIS
     642     255.98391482     255.98406944      -6.040E-07   1882.24    <-- DIS
     643     255.98388794     255.98404149      -5.998E-07   1885.17    <-- DIS
     644     255.98386139     255.98401387      -5.957E-07   1888.03    <-- DIS
     645     255.98383516     255.98398657      -5.915E-07   1890.96    <-- DIS
     646     255.98380923     255.98395959      -5.874E-07   1893.89    <-- DIS
     647     255.98378361     255.98393293      -5.833E-07   1896.80    <-- DIS
     648     255.98375829     255.98390657      -5.793E-07   1899.73    <-- DIS
     649     255.98373327     255.98388052      -5.752E-07   1902.62    <-- DIS
     650     255.98370855     255.98385478      -5.712E-07   1905.51    <-- DIS
     651     255.98368412     255.98382933      -5.673E-07   1908.41    <-- DIS
     652     255.98365997     255.98380418      -5.633E-07   1911.30    <-- DIS
     653     255.98363612     255.98377932      -5.594E-07   1914.17    <-- DIS
     654     255.98361254     255.98375475      -5.555E-07   1917.06    <-- DIS
     655     255.98358924     255.98373046      -5.517E-07   1919.96    <-- DIS
     656     255.98356621     255.98370645      -5.478E-07   1922.86    <-- DIS
     657     255.98354346     255.98368272      -5.440E-07   1925.77    <-- DIS
     658     255.98352097     255.98365927      -5.403E-07   1928.69    <-- DIS
     659     255.98349875     255.98363609      -5.365E-07   1931.62    <-- DIS
     660     255.98347679     255.98361318      -5.328E-07   1934.54    <-- DIS
     661     255.98345509     255.98359053      -5.291E-07   1937.46    <-- DIS
     662     255.98343364     255.98356814      -5.254E-07   1940.37    <-- DIS
     663     255.98341245     255.98354601      -5.218E-07   1943.27    <-- DIS
     664     255.98339150     255.98352414      -5.181E-07   1946.20    <-- DIS
     665     255.98337080     255.98350252      -5.145E-07   1949.14    <-- DIS
     666     255.98335034     255.98348114      -5.110E-07   1952.05    <-- DIS
     667     255.98333012     255.98346002      -5.074E-07   1954.97    <-- DIS
     668     255.98331014     255.98343913      -5.039E-07   1957.89    <-- DIS
     669     255.98329039     255.98341849      -5.004E-07   1960.81    <-- DIS
     670     255.98327088     255.98339809      -4.969E-07   1963.73    <-- DIS
     671     255.98325159     255.98337792      -4.935E-07   1966.66    <-- DIS
     672     255.98323253     255.98335798      -4.901E-07   1969.58    <-- DIS
     673     255.98321369     255.98333827      -4.867E-07   1972.50    <-- DIS
     674     255.98319507     255.98331879      -4.833E-07   1975.41    <-- DIS
     675     255.98317667     255.98329953      -4.800E-07   1978.36    <-- DIS
     676     255.98315848     255.98328049      -4.766E-07   1981.32    <-- DIS
     677     255.98314050     255.98326167      -4.733E-07   1984.29    <-- DIS
     678     255.98312274     255.98324306      -4.700E-07   1987.22    <-- DIS
     679     255.98310518     255.98322467      -4.668E-07   1990.16    <-- DIS
     680     255.98308783     255.98320649      -4.636E-07   1993.11    <-- DIS
     681     255.98307068     255.98318852      -4.603E-07   1996.01    <-- DIS
     682     255.98305373     255.98317075      -4.572E-07   1998.95    <-- DIS
     683     255.98303697     255.98315319      -4.540E-07   2001.90    <-- DIS
     684     255.98302041     255.98313582      -4.509E-07   2004.84    <-- DIS
     685     255.98300405     255.98311866      -4.477E-07   2007.80    <-- DIS
     686     255.98298787     255.98310169      -4.446E-07   2010.85    <-- DIS
     687     255.98297188     255.98308491      -4.416E-07   2013.92    <-- DIS
     688     255.98295608     255.98306833      -4.385E-07   2016.89    <-- DIS
     689     255.98294046     255.98305194      -4.355E-07   2019.88    <-- DIS
     690     255.98292503     255.98303573      -4.325E-07   2022.83    <-- DIS
     691     255.98290977     255.98301970      -4.295E-07   2025.89    <-- DIS
     692     255.98289469     255.98300386      -4.265E-07   2028.85    <-- DIS
     693     255.98287978     255.98298820      -4.235E-07   2031.82    <-- DIS
     694     255.98286505     255.98297272      -4.206E-07   2034.78    <-- DIS
     695     255.98285048     255.98295741      -4.177E-07   2037.75    <-- DIS
     696     255.98283609     255.98294228      -4.148E-07   2040.68    <-- DIS
     697     255.98282186     255.98292732      -4.120E-07   2043.60    <-- DIS
     698     255.98280780     255.98291252      -4.091E-07   2046.52    <-- DIS
     699     255.98279390     255.98289790      -4.063E-07   2049.48    <-- DIS
     700     255.98278016     255.98288344      -4.035E-07   2052.44    <-- DIS
     701     255.98276658     255.98286915      -4.007E-07   2055.33    <-- DIS
     702     255.98275315     255.98285502      -3.979E-07   2058.24    <-- DIS
     703     255.98273988     255.98284104      -3.952E-07   2061.14    <-- DIS
     704     255.98272677     255.98282723      -3.924E-07   2064.05    <-- DIS
     705     255.98271380     255.98281357      -3.897E-07   2066.96    <-- DIS
     706     255.98270099     255.98280007      -3.871E-07   2069.86    <-- DIS
     707     255.98268832     255.98278672      -3.844E-07   2072.81    <-- DIS
     708     255.98267580     255.98277352      -3.817E-07   2075.74    <-- DIS
     709     255.98266342     255.98276047      -3.791E-07   2078.67    <-- DIS
     710     255.98265119     255.98274756      -3.765E-07   2081.59    <-- DIS
     711     255.98263909     255.98273480      -3.739E-07   2084.52    <-- DIS
     712     255.98262714     255.98272219      -3.713E-07   2087.52    <-- DIS
     713     255.98261532     255.98270972      -3.688E-07   2090.46    <-- DIS
     714     255.98260364     255.98269738      -3.662E-07   2093.42    <-- DIS
     715     255.98259209     255.98268519      -3.637E-07   2096.35    <-- DIS
     716     255.98258068     255.98267314      -3.612E-07   2099.30    <-- DIS
     717     255.98256940     255.98266122      -3.587E-07   2102.23    <-- DIS
     718     255.98255824     255.98264943      -3.562E-07   2105.16    <-- DIS
     719     255.98254722     255.98263778      -3.538E-07   2108.07    <-- DIS
     720     255.98253632     255.98262625      -3.513E-07   2111.02    <-- DIS
     721     255.98252554     255.98261486      -3.489E-07   2113.96    <-- DIS
     722     255.98251489     255.98260359      -3.465E-07   2116.86    <-- DIS
     723     255.98250436     255.98259245      -3.441E-07   2119.83    <-- DIS
     724     255.98249395     255.98258144      -3.418E-07   2122.79    <-- DIS
     725     255.98248366     255.98257055      -3.394E-07   2125.76    <-- DIS
     726     255.98247349     255.98255978      -3.371E-07   2128.75    <-- DIS
     727     255.98246343     255.98254913      -3.348E-07   2131.73    <-- DIS
     728     255.98245349     255.98253860      -3.325E-07   2134.70    <-- DIS
     729     255.98244367     255.98252819      -3.302E-07   2137.67    <-- DIS
     730     255.98243395     255.98251789      -3.279E-07   2140.67    <-- DIS
     731     255.98242435     255.98250771      -3.257E-07   2143.62    <-- DIS
     732     255.98241485     255.98249765      -3.234E-07   2146.56    <-- DIS
     733     255.98240547     255.98248769      -3.212E-07   2149.55    <-- DIS
     734     255.98239619     255.98247785      -3.190E-07   2152.51    <-- DIS
     735     255.98238702     255.98246812      -3.168E-07   2155.47    <-- DIS
     736     255.98237795     255.98245849      -3.146E-07   2158.42    <-- DIS
     737     255.98236898     255.98244897      -3.125E-07   2161.37    <-- DIS
     738     255.98236012     255.98243956      -3.103E-07   2164.34    <-- DIS
     739     255.98235136     255.98243025      -3.082E-07   2167.29    <-- DIS
     740     255.98234269     255.98242105      -3.061E-07   2170.26    <-- DIS
     741     255.98233413     255.98241195      -3.040E-07   2173.24    <-- DIS
     742     255.98232566     255.98240295      -3.019E-07   2176.23    <-- DIS
     743     255.98231729     255.98239405      -2.998E-07   2179.23    <-- DIS
     744     255.98230902     255.98238525      -2.978E-07   2182.24    <-- DIS
     745     255.98230084     255.98237654      -2.958E-07   2185.21    <-- DIS
     746     255.98229275     255.98236794      -2.937E-07   2188.17    <-- DIS
     747     255.98228475     255.98235943      -2.917E-07   2191.13    <-- DIS
     748     255.98227685     255.98235101      -2.897E-07   2194.08    <-- DIS
     749     255.98226903     255.98234269      -2.877E-07   2197.04    <-- DIS
     750     255.98226130     255.98233445      -2.858E-07   2200.02    <-- DIS
     751     255.98225366     255.98232631      -2.838E-07   2203.01    <-- DIS
     752     255.98224611     255.98231826      -2.819E-07   2206.06    <-- DIS
[...]
  WF centre and spread   63  ( -0.000004, -0.175795, 28.677052 )     3.29696899
  WF centre and spread   64  (  0.000005, -0.134448, 28.732550 )     2.98503046
  WF centre and spread   65  (  0.000000,  0.180416, 28.676943 )     3.29523121
  WF centre and spread   66  (  0.000000,  0.137468, 28.732606 )     2.98592404
  WF centre and spread   67  ( -0.000000, -0.001080, 69.736467 )     3.06320094
  WF centre and spread   68  ( -0.000000, -0.002201, 69.698398 )     3.23016448
  WF centre and spread   69  (  0.000000, -0.132818, 69.659693 )     2.97924980
  WF centre and spread   70  ( -0.000000, -0.172213, 69.605471 )     3.28576849
  WF centre and spread   71  (  0.000000,  0.135513, 69.659929 )     2.97820278
  WF centre and spread   72  ( -0.000000,  0.177165, 69.605390 )     3.28525186
  WF centre and spread   73  (  0.000000, -0.000002,  0.000268 )     0.64076279
  WF centre and spread   74  ( -0.000000,  0.000009,  0.000916 )     1.24526240
  WF centre and spread   75  ( -0.000000, -0.000039,  0.000074 )     0.66726839
  WF centre and spread   76  (  0.000000, -0.000094,  0.000289 )     1.05522185
  WF centre and spread   77  ( -0.000000,  0.000037,  0.000061 )     0.66584254
  WF centre and spread   78  (  0.000000,  0.000107,  0.000324 )     1.05621019
  WF centre and spread   79  (  0.000000,  0.000078,  0.000069 )     0.66430854
  WF centre and spread   80  ( -0.000000,  0.000092,  0.000260 )     1.22440982
  WF centre and spread   81  ( -0.000000, -0.000066,  0.000071 )     0.66450017
  WF centre and spread   82  (  0.000000, -0.000072,  0.000276 )     1.22413276
  WF centre and spread   83  (  0.000000,  0.000034, 40.925096 )     1.24655841
  WF centre and spread   84  (  0.000000,  0.000015, 40.925742 )     0.64080674
  WF centre and spread   85  (  0.000000,  0.000114, 40.925662 )     1.05896783
  WF centre and spread   86  ( -0.000000,  0.000049, 40.925946 )     0.66706854
  WF centre and spread   87  (  0.000000, -0.000079, 40.925697 )     1.05551938
  WF centre and spread   88  (  0.000000, -0.000023, 40.925929 )     0.66584325
  WF centre and spread   89  (  0.000000, -0.000044, 40.925714 )     1.22575949
  WF centre and spread   90  ( -0.000000, -0.000052, 40.925935 )     0.66456933
  WF centre and spread   91  (  0.000000,  0.000112, 40.925726 )     1.22604134
  WF centre and spread   92  ( -0.000000,  0.000093, 40.925940 )     0.66438583
  Sum of centres and spreads (  0.000001,  0.006850,********** )   268.15138738
 
     99    -0.227E-02     0.1516294984      268.1513885450    6471.66  <-- CONV
        O_D=      0.5316627 O_OD=     11.6381611 O_TOT=    268.1513885 <-- SPRD
 Delta: O_D= -0.3115939E-04 O_OD= -0.2242995E-02 O_TOT= -0.2274154E-02 <-- DLTA
 ------------------------------------------------------------------------------
 Cycle:    100
  WF centre and spread    1  ( -0.000000, -0.000182, 17.283111 )     4.14781473
  WF centre and spread    2  ( -0.000000, -0.001334, 17.188136 )     4.72450623
  WF centre and spread    3  (  0.000001, -0.066226, 17.332065 )     3.84553628
  WF centre and spread    4  ( -0.000001, -0.093181, 17.278057 )     4.25089009
  WF centre and spread    5  (  0.000000,  0.067210, 17.331859 )     3.84541758
  WF centre and spread    6  ( -0.000000,  0.096059, 17.278079 )     4.25508287
  WF centre and spread    7  (  0.000001, -0.000611, 58.085338 )     4.73585922
  WF centre and spread    8  ( -0.000000, -0.000501, 58.185537 )     4.15763837
  WF centre and spread    9  (  0.000002, -0.091301, 58.180169 )     4.27358726
  WF centre and spread   10  ( -0.000001, -0.063132, 58.234656 )     3.85021751
  WF centre and spread   11  (  0.000002,  0.093195, 58.179164 )     4.26781779
  WF centre and spread   12  ( -0.000002,  0.064816, 58.234551 )     3.85461192
  WF centre and spread   13  ( -0.000001,  0.000556, 23.738834 )     4.73240046
  WF centre and spread   14  (  0.000001,  0.000834, 23.643825 )     4.15622787
  WF centre and spread   15  ( -0.000000,  0.093429, 23.648515 )     4.26156489
  WF centre and spread   16  ( -0.000001,  0.066567, 23.594921 )     3.85151415
  WF centre and spread   17  ( -0.000001, -0.095253, 23.648871 )     4.25742774
  WF centre and spread   18  (  0.000000, -0.068078, 23.594652 )     3.85206905
  WF centre and spread   19  (  0.000001,  0.000644, 64.591223 )     4.15050079
  WF centre and spread   20  ( -0.000001,  0.001324, 64.691691 )     4.72531705
  WF centre and spread   21  (  0.000001,  0.063280, 64.542664 )     3.84747368
  WF centre and spread   22  ( -0.000001,  0.091378, 64.598280 )     4.26214988
  WF centre and spread   23  ( -0.000000, -0.063670, 64.542574 )     3.84402422
  WF centre and spread   24  (  0.000000, -0.093642, 64.596811 )     4.26876877
  WF centre and spread   25  (  0.000000,  0.000288,  5.456331 )     3.20215287
  WF centre and spread   26  ( -0.000000,  0.000320,  5.484402 )     3.08233822
  WF centre and spread   27  (  0.000000,  0.023290,  5.424679 )     3.16100364
  WF centre and spread   28  ( -0.000000,  0.037009,  5.455879 )     2.96087350
  WF centre and spread   29  (  0.000000, -0.023837,  5.424355 )     3.16246270
  WF centre and spread   30  (  0.000000, -0.036561,  5.457103 )     2.96232585
  WF centre and spread   31  ( -0.000000,  0.000601, 46.411221 )     3.07794998
  WF centre and spread   32  (  0.000000, -0.000393, 46.381169 )     3.19149038
  WF centre and spread   33  (  0.000000,  0.038357, 46.381640 )     2.96596295
  WF centre and spread   34  ( -0.000000,  0.024645, 46.352378 )     3.16363680
  WF centre and spread   35  (  0.000000, -0.039292, 46.381390 )     2.96313457
  WF centre and spread   36  ( -0.000000, -0.024583, 46.352279 )     3.16472036
  WF centre and spread   37  (  0.000000,  0.000129, 35.441235 )     3.08114997
  WF centre and spread   38  (  0.000000,  0.000539, 35.469359 )     3.19909795
  WF centre and spread   39  (  0.000000, -0.036796, 35.468447 )     2.95941527
  WF centre and spread   40  ( -0.000000, -0.023531, 35.501068 )     3.15931390
  WF centre and spread   41  (  0.000000,  0.038791, 35.469413 )     2.95710991
  WF centre and spread   42  ( -0.000000,  0.023723, 35.500445 )     3.15738456
  WF centre and spread   43  ( -0.000000, -0.000421, 76.397247 )     3.19382973
  WF centre and spread   44  (  0.000000,  0.000233, 76.367273 )     3.07926244
  WF centre and spread   45  ( -0.000000, -0.024164, 76.426326 )     3.16844661
  WF centre and spread   46  (  0.000000, -0.038383, 76.397002 )     2.96791635
  WF centre and spread   47  ( -0.000000,  0.024949, 76.426060 )     3.16591803
  WF centre and spread   48  (  0.000000,  0.038414, 76.396974 )     2.96927578
  WF centre and spread   49  ( -0.000000,  0.001363, 12.114817 )     3.06776219
  WF centre and spread   50  (  0.000000,  0.002610, 12.152742 )     3.23389031
  WF centre and spread   51  ( -0.000000,  0.134501, 12.193249 )     2.98453383
  WF centre and spread   52  (  0.000000,  0.175429, 12.248709 )     3.29493774
  WF centre and spread   53  (  0.000000, -0.137029, 12.193046 )     2.98338193
  WF centre and spread   54  ( -0.000000, -0.180606, 12.248765 )     3.29448622
  WF centre and spread   55  ( -0.000001,  0.002266, 53.079883 )     3.23249141
  WF centre and spread   56  (  0.000001,  0.001247, 53.041672 )     3.06547196
  WF centre and spread   57  ( -0.000000,  0.172626, 53.172861 )     3.28828810
  WF centre and spread   58  (  0.000000,  0.132882, 53.118479 )     2.98108769
  WF centre and spread   59  ( -0.000001, -0.177218, 53.172805 )     3.28751878
  WF centre and spread   60  (  0.000000, -0.135681, 53.118629 )     2.98073919
  WF centre and spread   61  (  0.000001, -0.002263, 28.773291 )     3.23524154
  WF centre and spread   62  (  0.000000, -0.001101, 28.810728 )     3.07001933
  WF centre and spread   63  ( -0.000004, -0.175826, 28.677015 )     3.29765368
  WF centre and spread   64  (  0.000005, -0.134470, 28.732517 )     2.98529870
  WF centre and spread   65  (  0.000000,  0.180478, 28.676906 )     3.29591907
  WF centre and spread   66  (  0.000000,  0.137503, 28.732574 )     2.98619318
  WF centre and spread   67  ( -0.000000, -0.001094, 69.736494 )     3.06343585
  WF centre and spread   68  ( -0.000000, -0.002229, 69.698424 )     3.23052301
  WF centre and spread   69  (  0.000000, -0.132840, 69.659661 )     2.97950199
  WF centre and spread   70  ( -0.000000, -0.172241, 69.605436 )     3.28640925
  WF centre and spread   71  (  0.000000,  0.135547, 69.659897 )     2.97845556
  WF centre and spread   72  ( -0.000000,  0.177224, 69.605355 )     3.28589693
  WF centre and spread   73  (  0.000000, -0.000002,  0.000268 )     0.64076778
  WF centre and spread   74  ( -0.000000,  0.000009,  0.000916 )     1.24520300
  WF centre and spread   75  ( -0.000000, -0.000038,  0.000074 )     0.66746181
  WF centre and spread   76  (  0.000000, -0.000094,  0.000289 )     1.05540410
  WF centre and spread   77  ( -0.000000,  0.000037,  0.000061 )     0.66602975
  WF centre and spread   78  (  0.000000,  0.000107,  0.000324 )     1.05638786
  WF centre and spread   79  (  0.000000,  0.000078,  0.000069 )     0.66442592
  WF centre and spread   80  ( -0.000000,  0.000092,  0.000260 )     1.22448922
  WF centre and spread   81  ( -0.000000, -0.000066,  0.000071 )     0.66461737
  WF centre and spread   82  (  0.000000, -0.000072,  0.000276 )     1.22421251
  WF centre and spread   83  (  0.000000,  0.000034, 40.925096 )     1.24649896
  WF centre and spread   84  (  0.000000,  0.000015, 40.925742 )     0.64081173
  WF centre and spread   85  (  0.000000,  0.000114, 40.925662 )     1.05915065
  WF centre and spread   86  ( -0.000000,  0.000049, 40.925947 )     0.66726139
  WF centre and spread   87  (  0.000000, -0.000079, 40.925697 )     1.05569655
  WF centre and spread   88  (  0.000000, -0.000023, 40.925929 )     0.66603053
  WF centre and spread   89  (  0.000000, -0.000044, 40.925713 )     1.22583809
  WF centre and spread   90  ( -0.000000, -0.000053, 40.925935 )     0.66468688
  WF centre and spread   91  (  0.000000,  0.000112, 40.925726 )     1.22612153
  WF centre and spread   92  ( -0.000000,  0.000093, 40.925940 )     0.66450271
  Sum of centres and spreads (  0.000001,  0.006851,********** )   268.14932657
 
    100    -0.206E-02     0.1457371980      268.1493277345    6472.99  <-- CONV
        O_D=      0.5317170 O_OD=     11.6360460 O_TOT=    268.1493277 <-- SPRD
 Delta: O_D=  0.5430676E-04 O_OD= -0.2115117E-02 O_TOT= -0.2060810E-02 <-- DLTA
 ------------------------------------------------------------------------------

 Writing checkpoint file MnBi2Te4.chk... done

 Final State
  WF centre and spread    1  ( -0.000000, -0.000182, 17.283111 )     4.14781473
  WF centre and spread    2  ( -0.000000, -0.001334, 17.188136 )     4.72450623
  WF centre and spread    3  (  0.000001, -0.066226, 17.332065 )     3.84553628
  WF centre and spread    4  ( -0.000001, -0.093181, 17.278057 )     4.25089009
  WF centre and spread    5  (  0.000000,  0.067210, 17.331859 )     3.84541758
  WF centre and spread    6  ( -0.000000,  0.096059, 17.278079 )     4.25508287
  WF centre and spread    7  (  0.000001, -0.000611, 58.085338 )     4.73585922
  WF centre and spread    8  ( -0.000000, -0.000501, 58.185537 )     4.15763837
  WF centre and spread    9  (  0.000002, -0.091301, 58.180169 )     4.27358726
  WF centre and spread   10  ( -0.000001, -0.063132, 58.234656 )     3.85021751
  WF centre and spread   11  (  0.000002,  0.093195, 58.179164 )     4.26781779
  WF centre and spread   12  ( -0.000002,  0.064816, 58.234551 )     3.85461192
  WF centre and spread   13  ( -0.000001,  0.000556, 23.738834 )     4.73240046
  WF centre and spread   14  (  0.000001,  0.000834, 23.643825 )     4.15622787
  WF centre and spread   15  ( -0.000000,  0.093429, 23.648515 )     4.26156489
  WF centre and spread   16  ( -0.000001,  0.066567, 23.594921 )     3.85151415
  WF centre and spread   17  ( -0.000001, -0.095253, 23.648871 )     4.25742774
  WF centre and spread   18  (  0.000000, -0.068078, 23.594652 )     3.85206905
  WF centre and spread   19  (  0.000001,  0.000644, 64.591223 )     4.15050079
  WF centre and spread   20  ( -0.000001,  0.001324, 64.691691 )     4.72531705
  WF centre and spread   21  (  0.000001,  0.063280, 64.542664 )     3.84747368
  WF centre and spread   22  ( -0.000001,  0.091378, 64.598280 )     4.26214988
  WF centre and spread   23  ( -0.000000, -0.063670, 64.542574 )     3.84402422
  WF centre and spread   24  (  0.000000, -0.093642, 64.596811 )     4.26876877
  WF centre and spread   25  (  0.000000,  0.000288,  5.456331 )     3.20215287
  WF centre and spread   26  ( -0.000000,  0.000320,  5.484402 )     3.08233822
  WF centre and spread   27  (  0.000000,  0.023290,  5.424679 )     3.16100364
  WF centre and spread   28  ( -0.000000,  0.037009,  5.455879 )     2.96087350
  WF centre and spread   29  (  0.000000, -0.023837,  5.424355 )     3.16246270
  WF centre and spread   30  (  0.000000, -0.036561,  5.457103 )     2.96232585
  WF centre and spread   31  ( -0.000000,  0.000601, 46.411221 )     3.07794998
  WF centre and spread   32  (  0.000000, -0.000393, 46.381169 )     3.19149038
  WF centre and spread   33  (  0.000000,  0.038357, 46.381640 )     2.96596295
  WF centre and spread   34  ( -0.000000,  0.024645, 46.352378 )     3.16363680
  WF centre and spread   35  (  0.000000, -0.039292, 46.381390 )     2.96313457
  WF centre and spread   36  ( -0.000000, -0.024583, 46.352279 )     3.16472036
  WF centre and spread   37  (  0.000000,  0.000129, 35.441235 )     3.08114997
  WF centre and spread   38  (  0.000000,  0.000539, 35.469359 )     3.19909795
  WF centre and spread   39  (  0.000000, -0.036796, 35.468447 )     2.95941527
  WF centre and spread   40  ( -0.000000, -0.023531, 35.501068 )     3.15931390
  WF centre and spread   41  (  0.000000,  0.038791, 35.469413 )     2.95710991
  WF centre and spread   42  ( -0.000000,  0.023723, 35.500445 )     3.15738456
  WF centre and spread   43  ( -0.000000, -0.000421, 76.397247 )     3.19382973
  WF centre and spread   44  (  0.000000,  0.000233, 76.367273 )     3.07926244
  WF centre and spread   45  ( -0.000000, -0.024164, 76.426326 )     3.16844661
  WF centre and spread   46  (  0.000000, -0.038383, 76.397002 )     2.96791635
  WF centre and spread   47  ( -0.000000,  0.024949, 76.426060 )     3.16591803
  WF centre and spread   48  (  0.000000,  0.038414, 76.396974 )     2.96927578
  WF centre and spread   49  ( -0.000000,  0.001363, 12.114817 )     3.06776219
  WF centre and spread   50  (  0.000000,  0.002610, 12.152742 )     3.23389031
  WF centre and spread   51  ( -0.000000,  0.134501, 12.193249 )     2.98453383
  WF centre and spread   52  (  0.000000,  0.175429, 12.248709 )     3.29493774
  WF centre and spread   53  (  0.000000, -0.137029, 12.193046 )     2.98338193
  WF centre and spread   54  ( -0.000000, -0.180606, 12.248765 )     3.29448622
  WF centre and spread   55  ( -0.000001,  0.002266, 53.079883 )     3.23249141
  WF centre and spread   56  (  0.000001,  0.001247, 53.041672 )     3.06547196
  WF centre and spread   57  ( -0.000000,  0.172626, 53.172861 )     3.28828810
  WF centre and spread   58  (  0.000000,  0.132882, 53.118479 )     2.98108769
  WF centre and spread   59  ( -0.000001, -0.177218, 53.172805 )     3.28751878
  WF centre and spread   60  (  0.000000, -0.135681, 53.118629 )     2.98073919
  WF centre and spread   61  (  0.000001, -0.002263, 28.773291 )     3.23524154
  WF centre and spread   62  (  0.000000, -0.001101, 28.810728 )     3.07001933
  WF centre and spread   63  ( -0.000004, -0.175826, 28.677015 )     3.29765368
  WF centre and spread   64  (  0.000005, -0.134470, 28.732517 )     2.98529870
  WF centre and spread   65  (  0.000000,  0.180478, 28.676906 )     3.29591907
  WF centre and spread   66  (  0.000000,  0.137503, 28.732574 )     2.98619318
  WF centre and spread   67  ( -0.000000, -0.001094, 69.736494 )     3.06343585
  WF centre and spread   68  ( -0.000000, -0.002229, 69.698424 )     3.23052301
  WF centre and spread   69  (  0.000000, -0.132840, 69.659661 )     2.97950199
  WF centre and spread   70  ( -0.000000, -0.172241, 69.605436 )     3.28640925
  WF centre and spread   71  (  0.000000,  0.135547, 69.659897 )     2.97845556
  WF centre and spread   72  ( -0.000000,  0.177224, 69.605355 )     3.28589693
  WF centre and spread   73  (  0.000000, -0.000002,  0.000268 )     0.64076778
  WF centre and spread   74  ( -0.000000,  0.000009,  0.000916 )     1.24520300
  WF centre and spread   75  ( -0.000000, -0.000038,  0.000074 )     0.66746181
  WF centre and spread   76  (  0.000000, -0.000094,  0.000289 )     1.05540410
  WF centre and spread   77  ( -0.000000,  0.000037,  0.000061 )     0.66602975
  WF centre and spread   78  (  0.000000,  0.000107,  0.000324 )     1.05638786
  WF centre and spread   79  (  0.000000,  0.000078,  0.000069 )     0.66442592
  WF centre and spread   80  ( -0.000000,  0.000092,  0.000260 )     1.22448922
  WF centre and spread   81  ( -0.000000, -0.000066,  0.000071 )     0.66461737
  WF centre and spread   82  (  0.000000, -0.000072,  0.000276 )     1.22421251
  WF centre and spread   83  (  0.000000,  0.000034, 40.925096 )     1.24649896
  WF centre and spread   84  (  0.000000,  0.000015, 40.925742 )     0.64081173
  WF centre and spread   85  (  0.000000,  0.000114, 40.925662 )     1.05915065
  WF centre and spread   86  ( -0.000000,  0.000049, 40.925947 )     0.66726139
  WF centre and spread   87  (  0.000000, -0.000079, 40.925697 )     1.05569655
  WF centre and spread   88  (  0.000000, -0.000023, 40.925929 )     0.66603053
  WF centre and spread   89  (  0.000000, -0.000044, 40.925713 )     1.22583809
  WF centre and spread   90  ( -0.000000, -0.000053, 40.925935 )     0.66468688
  WF centre and spread   91  (  0.000000,  0.000112, 40.925726 )     1.22612153
  WF centre and spread   92  ( -0.000000,  0.000093, 40.925940 )     0.66450271
  Sum of centres and spreads (  0.000001,  0.006851,********** )   268.14932657
 
         Spreads (Ang^2)       Omega I      =   255.981564730
        ================       Omega D      =     0.531717033
                               Omega OD     =    11.636045971
    Final Spread (Ang^2)       Omega Total  =   268.149327735
 ------------------------------------------------------------------------------

 Wannier centres written to file MnBi2Te4_centres.xyz
 Time for wannierise          140.807 (sec)

 Writing checkpoint file MnBi2Te4.chk... done

 *---------------------------------------------------------------------------*
 |                               PLOTTING                                    |
 *---------------------------------------------------------------------------*
 
 
 Calculating interpolated band-structure
 
 Time to calculate interpolated band structure     715.214 (sec)
 
 Time for plotting            804.471 (sec)
 Total Execution Time        7793.497 (sec)

 *===========================================================================*
 |                             TIMING INFORMATION                            |
 *===========================================================================*
 |    Tag                                                Ncalls      Time (s)|
 |---------------------------------------------------------------------------|
 |kmesh: get                                        :         1         0.564|
 |overlap: allocate                                 :         1         0.074|
 |overlap: read                                     :         1       479.130|
 |dis: main                                         :         1      6365.721|
 |wann: main                                        :         1       140.806|
 |plot: main                                        :         1       804.471|
 *---------------------------------------------------------------------------*
 
 All done: wannier90 exiting
