 
             +---------------------------------------------------+
             |                                                   |
             |                   WANNIER90                       |
             |                                                   |
             +---------------------------------------------------+
             |                                                   |
             |        Welcome to the Maximally-Localized         |
             |        Generalized Wannier Functions code         |
             |            http://www.wannier.org                 |
             |                                                   |
             |                                                   |
             |  Wannier90 Developer Group:                       |
             |    Giovanni Pizzi    (EPFL)                       |
             |    Valerio Vitale    (Cambridge)                  |
             |    David Vanderbilt  (Rutgers University)         |
             |    Nicola Marzari    (EPFL)                       |
             |    Ivo Souza         (Universidad del Pais Vasco) |
             |    Arash A. Mostofi  (Imperial College London)    |
             |    Jonathan R. Yates (University of Oxford)       |
             |                                                   |
             |  For the full list of Wannier90 3.x authors,      |
             |  please check the code documentation and the      |
             |  README on the GitHub page of the code            |
             |                                                   |
             |                                                   |
             |  Please cite                                      |
             |                                                   |
             |  [ref] "Wannier90 as a community code:            |
             |        new features and applications",            |
             |        G. Pizzi et al., J. Phys. Cond. Matt. 32,  |
             |        165902 (2020).                             |
             |        http://doi.org/10.1088/1361-648X/ab51ff    |
             |                                                   |
             |  in any publications arising from the use of      |
             |  this code. For the method please cite            |
             |                                                   |
             |  [ref] "Maximally Localized Generalised Wannier   |
             |         Functions for Composite Energy Bands"     |
             |         N. Marzari and D. Vanderbilt              |
             |         Phys. Rev. B 56 12847 (1997)              |
             |                                                   |
             |  [ref] "Maximally Localized Wannier Functions     |
             |         for Entangled Energy Bands"               |
             |         I. Souza, N. Marzari and D. Vanderbilt    |
             |         Phys. Rev. B 65 035109 (2001)             |
             |                                                   |
             |                                                   |
             | Copyright (c) 1996-2020                           |
             |        The Wannier90 Developer Group and          |
             |        individual contributors                    |
             |                                                   |
             |      Release: 3.1.0        5th March    2020      |
             |                                                   |
             | This program is free software; you can            |
             | redistribute it and/or modify it under the terms  |
             | of the GNU General Public License as published by |
             | the Free Software Foundation; either version 2 of |
             | the License, or (at your option) any later version|
             |                                                   |
             | This program is distributed in the hope that it   |
             | will be useful, but WITHOUT ANY WARRANTY; without |
             | even the implied warranty of MERCHANTABILITY or   |
             | FITNESS FOR A PARTICULAR PURPOSE. See the GNU     |
             | General Public License for more details.          |
             |                                                   |
             | You should have received a copy of the GNU General|
             | Public License along with this program; if not,   |
             | write to the Free Software Foundation, Inc.,      |
             | 675 Mass Ave, Cambridge, MA 02139, USA.           |
             |                                                   |
             +---------------------------------------------------+
             |    Execution started on 16Jan2026 at 17:05:20     |
             +---------------------------------------------------+
 
 ******************************************************************************
 * -> Using CODATA 2006 constant values                                       *
 *    (http://physics.nist.gov/cuu/Constants/index.html)                      *
 * -> Using Bohr value from CODATA                                            *
 ******************************************************************************
 

 Running in parallel on  48 CPUs

 
                                    ------
                                    SYSTEM
                                    ------
 
                              Lattice Vectors (Ang)
                    a_1     2.166809  -1.251015  27.284009
                    a_2     0.000000   2.502002  27.284009
                    a_3    -2.166809  -1.251015  27.284009
 
                   Unit Cell Volume:     443.75088  (Ang^3)
 
                        Reciprocal-Space Vectors (Ang^-1)
                    b_1     1.449871  -0.837085   0.076762
                    b_2     0.000000   1.674169   0.076763
                    b_3    -1.449871  -0.837085   0.076762
  
 *----------------------------------------------------------------------------*
 |   Site       Fractional Coordinate          Cartesian Coordinate (Ang)     |
 +----------------------------------------------------------------------------+
 | Mn   1   0.00000   0.00000   0.00000   |    0.00000   0.00000   0.00000    |
 | Mn   1   0.50000   0.50000   0.50000   |    0.00000   0.00000  40.92600    |
 | Bi   1   0.21245   0.21245   0.21245   |    0.00000   0.00000  17.38946    |
 | Bi   2   0.71245   0.71246   0.71245   |    0.00000   0.00000  58.31546    |
 | Bi   3   0.28755   0.28755   0.28755   |    0.00000   0.00000  23.53654    |
 | Bi   4   0.78755   0.78756   0.78755   |    0.00000   0.00000  64.46255    |
 | Te   1   0.06680   0.06680   0.06680   |    0.00000   0.00000   5.46789    |
 | Te   2   0.56656   0.56656   0.56656   |    0.00000   0.00000  46.37389    |
 | Te   3   0.43320   0.43320   0.43320   |    0.00000   0.00000  35.45811    |
 | Te   4   0.93344   0.93345   0.93344   |    0.00000   0.00000  76.40411    |
 | Te   5   0.14703   0.14703   0.14703   |    0.00000   0.00000  12.03470    |
 | Te   6   0.64703   0.64703   0.64703   |    0.00000   0.00000  52.96070    |
 | Te   7   0.35297   0.35297   0.35297   |    0.00000   0.00000  28.89130    |
 | Te   8   0.85297   0.85298   0.85297   |    0.00000   0.00000  69.81730    |
 *----------------------------------------------------------------------------*
                                ------------
                                K-POINT GRID
                                ------------
  
             Grid size =  8 x  8 x  8      Total points =  512
  
  
 *---------------------------------- MAIN ------------------------------------*
 |  Number of Wannier Functions               :                92             |
 |  Number of Objective Wannier Functions     :                92             |
 |  Number of input Bloch states              :               240             |
 |  Output verbosity (1=low, 5=high)          :                 1             |
 |  Timing Level (1=low, 5=high)              :                 1             |
 |  Optimisation (0=memory, 3=speed)          :                 3             |
 |  Length Unit                               :               Ang             |
 |  Post-processing setup (write *.nnkp)      :                 F             |
 |  Using Gamma-only branch of algorithms     :                 F             |
 *----------------------------------------------------------------------------*
 *------------------------------- WANNIERISE ---------------------------------*
 |  Total number of iterations                :               100             |
 |  Number of CG steps before reset           :                 5             |
 |  Trial step length for line search         :             2.000             |
 |  Convergence tolerence                     :         0.100E-09             |
 |  Convergence window                        :                -1             |
 |  Iterations between writing output         :                 1             |
 |  Iterations between backing up to disk     :               100             |
 |  Write r^2_nm to file                      :                 F             |
 |  Write xyz WF centres to file              :                 T             |
 |  Write on-site energies <0n|H|0n> to file  :                 F             |
 |  Use guiding centre to control phases      :                 F             |
 |  Use phases for initial projections        :                 F             |
 *----------------------------------------------------------------------------*
 *------------------------------- DISENTANGLE --------------------------------*
 |  Using band disentanglement                :                 T             |
 |  Total number of iterations                :              5000             |
 |  Mixing ratio                              :             0.500             |
 |  Convergence tolerence                     :         1.000E-10             |
 |  Convergence window                        :                 3             |
 *----------------------------------------------------------------------------*
 *-------------------------------- PLOTTING ----------------------------------*
 |  Plotting interpolated bandstructure       :                 T             |
 |   Number of K-path sections                :                 5             |
 |   Divisions along first K-path section     :               100             |
 |   Output format                            :           gnuplot             |
 |   Output mode                              :               s-k             |
 *----------------------------------------------------------------------------*
 |   K-space path sections:                                                   |
 |    From: G       0.000  0.000  0.000     To: T       0.500  0.500  0.500   |
 |    From: T       0.500  0.500  0.500     To: P1      0.664  0.172  0.664   |
 |    From: P1      0.664  0.172  0.664     To: F       0.500  0.000  0.500   |
 |    From: F       0.500  0.000  0.500     To: G       0.000  0.000  0.000   |
 |    From: G       0.000  0.000  0.000     To: L       0.500  0.000  0.000   |
 *----------------------------------------------------------------------------*
 |  Plotting Hamiltonian in WF basis          :                 T             |
 *----------------------------------------------------------------------------*
 Time to read parameters        0.313 (sec)

 *---------------------------------- K-MESH ----------------------------------*
 +----------------------------------------------------------------------------+
 |                    Distance to Nearest-Neighbour Shells                    |
 |                    ------------------------------------                    |
 |          Shell             Distance (Ang^-1)          Multiplicity         |
 |          -----             -----------------          ------------         |
 |             1                   0.028786                      2            |
 |             2                   0.057572                      2            |
 |             3                   0.086358                      2            |
 |             4                   0.115144                      2            |
 |             5                   0.143930                      2            |
 |             6                   0.172716                      2            |
 |             7                   0.201502                      2            |
 |             8                   0.209491                      6            |
 |             9                   0.210149                      6            |
 |            10                   0.212761                      6            |
 |            11                   0.214700                      6            |
 |            12                   0.219786                      6            |
 |            13                   0.222905                      6            |
 |            14                   0.230288                      8            |
 |            15                   0.234382                      6            |
 |            16                   0.243627                      6            |
 |            17                   0.248677                      6            |
 |            18                   0.259074                      2            |
 |            19                   0.259546                      6            |
 |            20                   0.265335                      6            |
 |            21                   0.277546                      6            |
 |            22                   0.283941                      6            |
 |            23                   0.287860                      2            |
 |            24                   0.297248                      6            |
 |            25                   0.304138                      6            |
 |            26                   0.316646                      2            |
 |            27                   0.318337                      6            |
 |            28                   0.325629                      6            |
 |            29                   0.340555                      6            |
 |            30                   0.345432                      2            |
 |            31                   0.348175                      6            |
 |            32                   0.362468                      6            |
 |            33                   0.363609                     18            |
 |            34                   0.367011                     12            |
 |            35                   0.371584                      6            |
 |            36                   0.372613                     12            |
 +----------------------------------------------------------------------------+
 | The b-vectors are chosen automatically                                     |
 | The following shells are used:   1,  8                                     |
 +----------------------------------------------------------------------------+
 |                        Shell   # Nearest-Neighbours                        |
 |                        -----   --------------------                        |
 |                          1               2                                 |
 |                          8               6                                 |
 +----------------------------------------------------------------------------+
 | Completeness relation is fully satisfied [Eq. (B1), PRB 56, 12847 (1997)]  |
 +----------------------------------------------------------------------------+
 |                  b_k Vectors (Ang^-1) and Weights (Ang^2)                  |
 |                  ----------------------------------------                  |
 |            No.         b_k(x)      b_k(y)      b_k(z)        w_b           |
 |            ---        --------------------------------     --------        |
 |             1         0.000000    0.000000    0.028786   600.864703        |
 |             2         0.000000    0.000000   -0.028786   600.864703        |
 |             3        -0.181234   -0.104636    0.009595     7.611332        |
 |             4         0.000000    0.209271    0.009595     7.611332        |
 |             5         0.181234   -0.104636    0.009595     7.611332        |
 |             6         0.181234    0.104636   -0.009595     7.611332        |
 |             7        -0.181234    0.104636   -0.009595     7.611332        |
 |             8         0.000000   -0.209271   -0.009595     7.611332        |
 +----------------------------------------------------------------------------+
 |                           b_k Directions (Ang^-1)                          |
 |                           -----------------------                          |
 |            No.           x           y           z                         |
 |            ---        --------------------------------                     |
 |             1         0.000000    0.000000    0.028786                     |
 |             2        -0.181234   -0.104636    0.009595                     |
 |             3         0.000000    0.209271    0.009595                     |
 |             4         0.181234   -0.104636    0.009595                     |
 +----------------------------------------------------------------------------+
  
 Time to get kmesh              0.561 (sec)
 *============================================================================*
 |                              MEMORY ESTIMATE                               |
 |         Maximum RAM allocated during each phase of the calculation         |
 *============================================================================*
 |                        Disentanglement         4916.54 Mb                  |
 |                            Wannierise:         1511.32 Mb                  |
 |                          plot_wannier:         1511.32 Mb                  |
 *----------------------------------------------------------------------------*
  
 Starting a new Wannier90 calculation ...


 Reading overlaps from MnBi2Te4.mmn    :  Created on 13Jan2026 at  6:41:13

 Reading projections from MnBi2Te4.amn :  Created on 13Jan2026 at  6:11:20

 Time to read overlaps        478.376 (sec)

 *------------------------------- DISENTANGLE --------------------------------*
 +----------------------------------------------------------------------------+
 |                              Energy  Windows                               |
 |                              ---------------                               |
 |                   Outer:   -7.00000  to   20.00000  (eV)                   |
 |                   Inner:    0.00000  to   10.00000  (eV)                   |
 +----------------------------------------------------------------------------+
   Number of target bands to extract:   92

                   Unitarised projection of Wannier functions                  
                   ------------------------------------------                  
   A_mn = <psi_m|g_n> --> S = A.A^+ --> U = S^-1/2.A
   In dis_project... done
   Using an inner window (linner = T)
   In dis_proj_froz... done

                   Extraction of optimally-connected subspace                  
                   ------------------------------------------                  
 +---------------------------------------------------------------------+<-- DIS
 |  Iter     Omega_I(i-1)      Omega_I(i)      Delta (frac.)    Time   |<-- DIS
 +---------------------------------------------------------------------+<-- DIS
       1     433.58127890     391.23670160       1.082E-01      0.00    <-- DIS
       2     388.97184043     373.19789409       4.227E-02      3.03    <-- DIS
       3     377.63690561     362.62492138       4.140E-02      6.03    <-- DIS
       4     366.71231719     354.21026188       3.530E-02      9.06    <-- DIS
       5     357.48579419     347.21105878       2.959E-02     12.09    <-- DIS
       6     349.78461482     341.24202698       2.503E-02     15.08    <-- DIS
       7     343.28044697     336.05531866       2.150E-02     18.12    <-- DIS
       8     337.69832933     331.48135931       1.876E-02     21.12    <-- DIS
       9     332.83258258     327.39950971       1.659E-02     24.17    <-- DIS
      10     328.53284662     323.72122379       1.486E-02     27.19    <-- DIS
      11     324.68887628     320.37977888       1.345E-02     30.20    <-- DIS
      12     321.21878816     317.32374832       1.227E-02     33.23    <-- DIS
      13     318.06072081     314.51270893       1.128E-02     36.24    <-- DIS
      14     315.16707371     311.91433462       1.043E-02     39.25    <-- DIS
      15     312.50054655     309.50237748       9.687E-03     42.28    <-- DIS
      16     310.03140107     307.25523381       9.035E-03     45.32    <-- DIS
      17     307.73554665     305.15490508       8.457E-03     48.33    <-- DIS
      18     305.59318284     303.18623167       7.939E-03     51.37    <-- DIS
      19     303.58782168     301.33631859       7.472E-03     54.42    <-- DIS
      20     301.70557213     299.59409896       7.048E-03     57.45    <-- DIS
      21     299.93460798     297.94999765       6.661E-03     60.51    <-- DIS
      22     298.26476615     296.39566902       6.306E-03     63.50    <-- DIS
      23     296.68723909     294.92379020       5.979E-03     66.53    <-- DIS
      24     295.19433598     293.52789623       5.677E-03     69.57    <-- DIS
      25     293.77929513     292.20224760       5.397E-03     72.58    <-- DIS
      26     292.43613487     290.94172263       5.136E-03     75.63    <-- DIS
      27     291.15953377     289.74172943       4.893E-03     78.77    <-- DIS
      28     289.94473347     288.59813324       4.666E-03     81.84    <-- DIS
      29     288.78745922     287.50719606       4.453E-03     84.95    <-- DIS
      30     287.68385426     286.46552611       4.253E-03     88.00    <-- DIS
      31     286.63042525     285.47003530       4.065E-03     91.03    <-- DIS
      32     285.62399660     284.51790317       3.888E-03     94.10    <-- DIS
      33     284.66167192     283.60654613       3.720E-03     97.11    <-- DIS
      34     283.74080136     282.73359116       3.562E-03    100.15    <-- DIS
      35     282.85895366     281.89685310       3.413E-03    103.06    <-- DIS
      36     282.01389224     281.09431504       3.271E-03    105.88    <-- DIS
      37     281.20355455     280.32411126       3.137E-03    108.68    <-- DIS
      38     280.42603414     279.58451233       3.010E-03    111.45    <-- DIS
      39     279.67956511     278.87391206       2.889E-03    114.26    <-- DIS
      40     278.96250843     278.19081600       2.774E-03    117.11    <-- DIS
      41     278.27334002     277.53383132       2.665E-03    119.94    <-- DIS
      42     277.61064019     276.90165778       2.560E-03    122.75    <-- DIS
      43     276.97308429     276.29307979       2.461E-03    125.54    <-- DIS
      44     276.35943446     275.70695924       2.367E-03    128.40    <-- DIS
      45     275.76853222     275.14222917       2.276E-03    131.22    <-- DIS
      46     275.19929194     274.59788800       2.190E-03    134.03    <-- DIS
      47     274.65069486     274.07299443       2.108E-03    136.85    <-- DIS
      48     274.12178389     273.56666278       2.029E-03    139.69    <-- DIS
      49     273.61165874     273.07805883       1.954E-03    142.51    <-- DIS
      50     273.11947168     272.60639598       1.882E-03    145.33    <-- DIS
      51     272.64442362     272.15093185       1.813E-03    148.17    <-- DIS
      52     272.18576054     271.71096512       1.747E-03    151.02    <-- DIS
      53     271.74277032     271.28583267       1.684E-03    153.86    <-- DIS
      54     271.31477978     270.87490696       1.624E-03    156.72    <-- DIS
      55     270.90115202     270.47759369       1.566E-03    159.55    <-- DIS
      56     270.50128396     270.09332953       1.510E-03    162.36    <-- DIS
      57     270.11460410     269.72158018       1.457E-03    165.17    <-- DIS
      58     269.74057046     269.36183848       1.406E-03    168.01    <-- DIS
      59     269.37866870     269.01362270       1.357E-03    170.80    <-- DIS
      60     269.02841037     268.67647500       1.310E-03    173.60    <-- DIS
      61     268.68933129     268.34995992       1.265E-03    176.39    <-- DIS
      62     268.36099008     268.03366311       1.221E-03    179.21    <-- DIS
      63     268.04296679     267.72719001       1.179E-03    182.01    <-- DIS
      64     267.73486161     267.43016472       1.139E-03    184.81    <-- DIS
      65     267.43629369     267.14222896       1.101E-03    187.63    <-- DIS
      66     267.14690007     266.86304099       1.064E-03    190.44    <-- DIS
      67     266.86633463     266.59227476       1.028E-03    193.25    <-- DIS
      68     266.59426715     266.32961901       9.937E-04    196.08    <-- DIS
      69     266.33038246     266.07477642       9.607E-04    198.89    <-- DIS
      70     266.07437954     265.82746295       9.289E-04    201.70    <-- DIS
      71     265.82597082     265.58740701       8.982E-04    204.53    <-- DIS
      72     265.58488144     265.35434891       8.688E-04    207.34    <-- DIS
      73     265.35084856     265.12804018       8.404E-04    210.11    <-- DIS
      74     265.12362073     264.90824298       8.130E-04    212.84    <-- DIS
      75     264.90295733     264.69472959       7.867E-04    215.60    <-- DIS
      76     264.68862798     264.48728189       7.613E-04    218.38    <-- DIS
      77     264.48041202     264.28569086       7.368E-04    221.11    <-- DIS
      78     264.27809806     264.08975614       7.132E-04    223.88    <-- DIS
      79     264.08148347     263.89928561       6.904E-04    226.67    <-- DIS
      80     263.89037397     263.71409495       6.684E-04    229.46    <-- DIS
      81     263.70458323     263.53400733       6.473E-04    232.25    <-- DIS
      82     263.52393248     263.35885299       6.268E-04    235.05    <-- DIS
      83     263.34825011     263.18846894       6.071E-04    237.82    <-- DIS
      84     263.17737141     263.02269863       5.881E-04    240.59    <-- DIS
      85     263.01113815     262.86139164       5.697E-04    243.35    <-- DIS
      86     262.84939835     262.70440341       5.519E-04    246.10    <-- DIS
      87     262.69200596     262.55159498       5.348E-04    248.85    <-- DIS
      88     262.53882060     262.40283269       5.182E-04    251.58    <-- DIS
      89     262.38970726     262.25798800       5.023E-04    254.32    <-- DIS
      90     262.24453612     262.11693724       4.868E-04    257.07    <-- DIS
      91     262.10318228     261.97956135       4.719E-04    259.81    <-- DIS
      92     261.96552554     261.84574574       4.574E-04    262.53    <-- DIS
      93     261.83145020     261.71538008       4.435E-04    265.24    <-- DIS
      94     261.70084487     261.58835806       4.300E-04    268.00    <-- DIS
      95     261.57360225     261.46457730       4.170E-04    270.75    <-- DIS
      96     261.44961901     261.34393911       4.044E-04    273.49    <-- DIS
      97     261.32879557     261.22634839       3.922E-04    276.28    <-- DIS
      98     261.21103594     261.11171343       3.804E-04    279.01    <-- DIS
      99     261.09624761     260.99994581       3.690E-04    281.74    <-- DIS
     100     260.98434137     260.89096020       3.579E-04    284.48    <-- DIS
     101     260.87523117     260.78467433       3.472E-04    287.23    <-- DIS
     102     260.76883402     260.68100878       3.369E-04    289.97    <-- DIS
     103     260.66506981     260.57988688       3.269E-04    292.70    <-- DIS
     104     260.56386125     260.48123463       3.172E-04    295.43    <-- DIS
     105     260.46513373     260.38498056       3.078E-04    298.19    <-- DIS
     106     260.36881520     260.29105566       2.987E-04    300.93    <-- DIS
     107     260.27483608     260.19939324       2.899E-04    303.66    <-- DIS
     108     260.18312916     260.10992888       2.814E-04    306.45    <-- DIS
     109     260.09362952     260.02260030       2.732E-04    309.19    <-- DIS
     110     260.00627440     259.93734732       2.652E-04    311.93    <-- DIS
     111     259.92100317     259.85411176       2.574E-04    314.67    <-- DIS
     112     259.83775719     259.77283733       2.499E-04    317.41    <-- DIS
     113     259.75647978     259.69346961       2.426E-04    320.14    <-- DIS
     114     259.67711612     259.61595595       2.356E-04    322.86    <-- DIS
     115     259.59961319     259.54024541       2.287E-04    325.59    <-- DIS
     116     259.52391968     259.46628870       2.221E-04    328.31    <-- DIS
     117     259.44998595     259.39403810       2.157E-04    331.06    <-- DIS
     118     259.37776396     259.32344741       2.095E-04    333.82    <-- DIS
     119     259.30720722     259.25447191       2.034E-04    336.57    <-- DIS
     120     259.23827070     259.18706829       1.975E-04    339.32    <-- DIS
     121     259.17091079     259.12119460       1.919E-04    342.09    <-- DIS
     122     259.10508530     259.05681020       1.863E-04    344.86    <-- DIS
     123     259.04075330     258.99387570       1.810E-04    347.63    <-- DIS
     124     258.97787520     258.93235295       1.758E-04    350.40    <-- DIS
     125     258.91641258     258.87220497       1.708E-04    353.16    <-- DIS
     126     258.85632825     258.81339591       1.659E-04    355.93    <-- DIS
     127     258.79758615     258.75589099       1.611E-04    358.72    <-- DIS
     128     258.74015130     258.69965653       1.565E-04    361.45    <-- DIS
     129     258.68398981     258.64465982       1.521E-04    364.21    <-- DIS
     130     258.62906882     258.59086916       1.477E-04    367.02    <-- DIS
     131     258.57535643     258.53825379       1.435E-04    369.80    <-- DIS
     132     258.52282171     258.48678386       1.394E-04    372.53    <-- DIS
     133     258.47143467     258.43643041       1.354E-04    375.30    <-- DIS
     134     258.42116619     258.38716533       1.316E-04    378.06    <-- DIS
     135     258.37198801     258.33896132       1.278E-04    380.82    <-- DIS
     136     258.32387270     258.29179189       1.242E-04    383.58    <-- DIS
     137     258.27679365     258.24563133       1.207E-04    386.35    <-- DIS
     138     258.23072500     258.20045465       1.172E-04    389.10    <-- DIS
     139     258.18564166     258.15623759       1.139E-04    391.82    <-- DIS
     140     258.14151924     258.11295658       1.107E-04    394.57    <-- DIS
     141     258.09833409     258.07058872       1.075E-04    397.32    <-- DIS
     142     258.05606319     258.02911178       1.045E-04    400.09    <-- DIS
     143     258.01468420     257.98850412       1.015E-04    402.85    <-- DIS
     144     257.97417542     257.94874475       9.859E-05    405.61    <-- DIS
     145     257.93451574     257.90981322       9.578E-05    408.35    <-- DIS
     146     257.89568465     257.87168971       9.305E-05    411.09    <-- DIS
     147     257.85766222     257.83435489       9.040E-05    413.85    <-- DIS
     148     257.82042907     257.79778999       8.782E-05    416.58    <-- DIS
     149     257.78396637     257.76197678       8.531E-05    419.32    <-- DIS
     150     257.74825578     257.72689748       8.287E-05    422.05    <-- DIS
     151     257.71327948     257.69253483       8.050E-05    424.76    <-- DIS
     152     257.67902015     257.65887203       7.820E-05    427.46    <-- DIS
     153     257.64546092     257.62589274       7.596E-05    430.17    <-- DIS
     154     257.61258539     257.59358103       7.378E-05    432.91    <-- DIS
     155     257.58037760     257.56192144       7.166E-05    435.63    <-- DIS
     156     257.54882202     257.53089890       6.960E-05    438.38    <-- DIS
     157     257.51790353     257.50049874       6.759E-05    441.09    <-- DIS
     158     257.48760742     257.47070668       6.564E-05    443.83    <-- DIS
     159     257.45791938     257.44150881       6.374E-05    446.55    <-- DIS
     160     257.42882544     257.41289162       6.190E-05    449.27    <-- DIS
     161     257.40031205     257.38484190       6.011E-05    451.99    <-- DIS
     162     257.37236599     257.35734683       5.836E-05    454.73    <-- DIS
     163     257.34497437     257.33039389       5.666E-05    457.46    <-- DIS
     164     257.31812466     257.30397091       5.501E-05    460.20    <-- DIS
     165     257.29180465     257.27806601       5.340E-05    462.94    <-- DIS
     166     257.26600244     257.25266764       5.184E-05    465.70    <-- DIS
     167     257.24070643     257.22776453       5.031E-05    468.47    <-- DIS
     168     257.21590534     257.20334568       4.883E-05    471.19    <-- DIS
     169     257.19158816     257.17940041       4.739E-05    473.94    <-- DIS
     170     257.16774416     257.15591827       4.599E-05    476.67    <-- DIS
     171     257.14436288     257.13288911       4.462E-05    479.39    <-- DIS
     172     257.12143414     257.11030300       4.329E-05    482.14    <-- DIS
     173     257.09894800     257.08815027       4.200E-05    484.89    <-- DIS
     174     257.07689478     257.06642151       4.074E-05    487.72    <-- DIS
     175     257.05526503     257.04510752       3.952E-05    490.53    <-- DIS
     176     257.03404955     257.02419933       3.832E-05    493.32    <-- DIS
     177     257.01323936     257.00368821       3.716E-05    496.13    <-- DIS
     178     256.99282569     256.98356561       3.603E-05    498.97    <-- DIS
     179     256.97280001     256.96382322       3.493E-05    501.76    <-- DIS
     180     256.95315398     256.94445293       3.386E-05    504.61    <-- DIS
     181     256.93387947     256.92544681       3.282E-05    507.43    <-- DIS
     182     256.91496855     256.90679712       3.181E-05    510.25    <-- DIS
     183     256.89641348     256.88849634       3.082E-05    513.05    <-- DIS
     184     256.87820671     256.87053710       2.986E-05    515.85    <-- DIS
     185     256.86034088     256.85291221       2.892E-05    518.66    <-- DIS
     186     256.84280878     256.83561466       2.801E-05    521.49    <-- DIS
     187     256.82560339     256.81863760       2.712E-05    524.29    <-- DIS
     188     256.80871787     256.80197435       2.626E-05    527.08    <-- DIS
     189     256.79214552     256.78561838       2.542E-05    529.86    <-- DIS
     190     256.77587982     256.76956332       2.460E-05    532.65    <-- DIS
     191     256.75991438     256.75380294       2.380E-05    535.43    <-- DIS
     192     256.74424297     256.73833118       2.303E-05    538.23    <-- DIS
     193     256.72885952     256.72314209       2.227E-05    541.03    <-- DIS
     194     256.71375809     256.70822987       2.154E-05    543.87    <-- DIS
     195     256.69893288     256.69358887       2.082E-05    546.75    <-- DIS
     196     256.68437821     256.67921355       2.012E-05    549.64    <-- DIS
     197     256.67008856     256.66509850       1.944E-05    552.52    <-- DIS
     198     256.65605853     256.65123846       1.878E-05    555.38    <-- DIS
     199     256.64228282     256.63762824       1.814E-05    558.28    <-- DIS
     200     256.62875628     256.62426282       1.751E-05    561.12    <-- DIS
     201     256.61547386     256.61113727       1.690E-05    563.98    <-- DIS
     202     256.60243064     256.59824677       1.631E-05    566.81    <-- DIS
     203     256.58962180     256.58558661       1.573E-05    569.65    <-- DIS
     204     256.57704264     256.57315220       1.516E-05    572.52    <-- DIS
     205     256.56468856     256.56093903       1.461E-05    575.33    <-- DIS
     206     256.55255505     256.54894272       1.408E-05    578.15    <-- DIS
     207     256.54063772     256.53715896       1.356E-05    580.99    <-- DIS
     208     256.52893228     256.52558354       1.305E-05    583.82    <-- DIS
     209     256.51743453     256.51421237       1.256E-05    586.67    <-- DIS
     210     256.50614036     256.50304142       1.208E-05    589.58    <-- DIS
     211     256.49504574     256.49206677       1.161E-05    592.48    <-- DIS
     212     256.48414677     256.48128457       1.116E-05    595.35    <-- DIS
     213     256.47343958     256.47069106       1.072E-05    598.20    <-- DIS
     214     256.46292044     256.46028256       1.029E-05    601.11    <-- DIS
     215     256.45258566     256.45005549       9.866E-06    603.98    <-- DIS
     216     256.44243165     256.44000633       9.458E-06    606.82    <-- DIS
     217     256.43245490     256.43013162       9.060E-06    609.65    <-- DIS
     218     256.42265196     256.42042801       8.673E-06    612.52    <-- DIS
     219     256.41301949     256.41089221       8.296E-06    615.34    <-- DIS
     220     256.40355417     256.40152098       7.930E-06    618.13    <-- DIS
     221     256.39425281     256.39231119       7.573E-06    620.97    <-- DIS
     222     256.38511223     256.38325973       7.226E-06    623.81    <-- DIS
     223     256.37612937     256.37436359       6.888E-06    626.61    <-- DIS
     224     256.36730120     256.36561981       6.559E-06    629.50    <-- DIS
     225     256.35862478     256.35702551       6.238E-06    632.36    <-- DIS
     226     256.35009721     256.34857785       5.927E-06    635.18    <-- DIS
     227     256.34171567     256.34027405       5.624E-06    637.98    <-- DIS
     228     256.33347738     256.33211141       5.329E-06    640.78    <-- DIS
     229     256.32537964     256.32408727       5.042E-06    643.62    <-- DIS
     230     256.31741980     256.31619902       4.763E-06    646.47    <-- DIS
     231     256.30959526     256.30844413       4.491E-06    649.35    <-- DIS
     232     256.30190347     256.30082009       4.227E-06    652.24    <-- DIS
     233     256.29434196     256.29332447       3.970E-06    655.10    <-- DIS
     234     256.28690827     256.28595488       3.720E-06    657.98    <-- DIS
     235     256.27960003     256.27870898       3.477E-06    660.86    <-- DIS
     236     256.27241489     256.27158446       3.240E-06    663.77    <-- DIS
     237     256.26535058     256.26457910       3.010E-06    666.65    <-- DIS
     238     256.25840484     256.25769068       2.787E-06    669.59    <-- DIS
     239     256.25157549     256.25091706       2.569E-06    672.53    <-- DIS
     240     256.24486037     256.24425612       2.358E-06    675.46    <-- DIS
     241     256.23825738     256.23770580       2.153E-06    678.41    <-- DIS
     242     256.23176445     256.23126408       1.953E-06    681.31    <-- DIS
     243     256.22537957     256.22492896       1.759E-06    684.22    <-- DIS
     244     256.21910075     256.21869851       1.570E-06    687.17    <-- DIS
     245     256.21292606     256.21257082       1.387E-06    690.12    <-- DIS
     246     256.20685360     256.20654402       1.208E-06    693.07    <-- DIS
     247     256.20088150     256.20061629       1.035E-06    696.04    <-- DIS
     248     256.19500794     256.19478584       8.669E-07    699.01    <-- DIS
     249     256.18923114     256.18905091       7.035E-07    701.97    <-- DIS
     250     256.18354934     256.18340978       5.448E-07    704.97    <-- DIS
     251     256.17796082     256.17786076       3.906E-07    707.92    <-- DIS
     252     256.17246391     256.17240220       2.409E-07    710.86    <-- DIS
     253     256.16705695     256.16703248       9.553E-08    713.80    <-- DIS
     254     256.16173834     256.16175002      -4.559E-08    716.77    <-- DIS
     255     256.15650648     256.15655325      -1.826E-07    719.72    <-- DIS
     256     256.15135982     256.15144065      -3.155E-07    722.66    <-- DIS
     257     256.14629685     256.14641072      -4.446E-07    725.60    <-- DIS
     258     256.14131607     256.14146200      -5.698E-07    728.59    <-- DIS
     259     256.13641601     256.13659306      -6.912E-07    731.56    <-- DIS
     260     256.13159526     256.13180247      -8.090E-07    734.53    <-- DIS
     261     256.12685239     256.12708886      -9.233E-07    737.47    <-- DIS
     262     256.12218603     256.12245088      -1.034E-06    740.41    <-- DIS
     263     256.11759484     256.11788719      -1.141E-06    743.37    <-- DIS
     264     256.11307748     256.11339649      -1.246E-06    746.24    <-- DIS
     265     256.10863266     256.10897750      -1.346E-06    749.07    <-- DIS
     266     256.10425911     256.10462898      -1.444E-06    751.93    <-- DIS
     267     256.09995556     256.10034968      -1.539E-06    754.76    <-- DIS
     268     256.09572081     256.09613841      -1.631E-06    757.61    <-- DIS
     269     256.09155364     256.09199398      -1.719E-06    760.46    <-- DIS
     270     256.08745289     256.08791523      -1.805E-06    763.28    <-- DIS
     271     256.08341738     256.08390103      -1.889E-06    766.14    <-- DIS
     272     256.07944600     256.07995026      -1.969E-06    768.98    <-- DIS
     273     256.07553762     256.07606182      -2.047E-06    771.85    <-- DIS
     274     256.07169116     256.07223465      -2.122E-06    774.71    <-- DIS
     275     256.06790555     256.06846767      -2.195E-06    777.57    <-- DIS
     276     256.06417974     256.06475987      -2.266E-06    780.44    <-- DIS
     277     256.06051269     256.06111023      -2.334E-06    783.29    <-- DIS
     278     256.05690339     256.05751775      -2.399E-06    786.17    <-- DIS
     279     256.05335087     256.05398146      -2.463E-06    789.02    <-- DIS
     280     256.04985413     256.05050040      -2.524E-06    791.91    <-- DIS
     281     256.04641224     256.04707362      -2.583E-06    794.75    <-- DIS
     282     256.04302424     256.04370021      -2.640E-06    797.63    <-- DIS
     283     256.03968923     256.04037926      -2.695E-06    800.51    <-- DIS
     284     256.03640629     256.03710988      -2.748E-06    803.36    <-- DIS
     285     256.03317456     256.03389120      -2.799E-06    806.20    <-- DIS
     286     256.02999315     256.03072237      -2.848E-06    809.06    <-- DIS
     287     256.02686121     256.02760253      -2.895E-06    811.93    <-- DIS
     288     256.02377792     256.02453088      -2.941E-06    814.78    <-- DIS
     289     256.02074244     256.02150659      -2.985E-06    817.62    <-- DIS
     290     256.01775397     256.01852888      -3.027E-06    820.46    <-- DIS
     291     256.01481172     256.01559696      -3.067E-06    823.31    <-- DIS
     292     256.01191492     256.01271007      -3.106E-06    826.19    <-- DIS
     293     256.00906280     256.00986746      -3.143E-06    829.05    <-- DIS
     294     256.00625461     256.00706838      -3.179E-06    831.92    <-- DIS
     295     256.00348962     256.00431212      -3.213E-06    834.79    <-- DIS
     296     256.00076710     256.00159797      -3.246E-06    837.65    <-- DIS
     297     255.99808636     255.99892522      -3.277E-06    840.50    <-- DIS
     298     255.99544669     255.99629319      -3.307E-06    843.36    <-- DIS
     299     255.99284742     255.99370120      -3.335E-06    846.19    <-- DIS
     300     255.99028786     255.99114860      -3.362E-06    848.98    <-- DIS
     301     255.98776737     255.98863473      -3.388E-06    851.77    <-- DIS
     302     255.98528530     255.98615896      -3.413E-06    854.54    <-- DIS
     303     255.98284101     255.98372066      -3.436E-06    857.31    <-- DIS
     304     255.98043388     255.98131922      -3.459E-06    860.11    <-- DIS
     305     255.97806330     255.97895404      -3.480E-06    862.91    <-- DIS
     306     255.97572867     255.97662451      -3.500E-06    865.72    <-- DIS
     307     255.97342939     255.97433006      -3.519E-06    868.67    <-- DIS
     308     255.97116489     255.97207011      -3.536E-06    871.59    <-- DIS
     309     255.96893461     255.96984411      -3.553E-06    874.49    <-- DIS
     310     255.96673797     255.96765150      -3.569E-06    877.37    <-- DIS
     311     255.96457443     255.96549174      -3.584E-06    880.27    <-- DIS
     312     255.96244346     255.96336429      -3.598E-06    883.16    <-- DIS
     313     255.96034452     255.96126864      -3.610E-06    886.10    <-- DIS
     314     255.95827709     255.95920426      -3.622E-06    889.03    <-- DIS
     315     255.95624066     255.95717066      -3.633E-06    891.98    <-- DIS
     316     255.95423473     255.95516734      -3.644E-06    894.84    <-- DIS
     317     255.95225880     255.95319381      -3.653E-06    897.76    <-- DIS
     318     255.95031240     255.95124959      -3.662E-06    900.68    <-- DIS
     319     255.94839503     255.94933421      -3.669E-06    903.61    <-- DIS
     320     255.94650625     255.94744721      -3.676E-06    906.52    <-- DIS
     321     255.94464558     255.94558814      -3.683E-06    909.44    <-- DIS
     322     255.94281258     255.94375654      -3.688E-06    912.36    <-- DIS
     323     255.94100680     255.94195199      -3.693E-06    915.27    <-- DIS
     324     255.93922780     255.94017404      -3.697E-06    918.18    <-- DIS
     325     255.93747517     255.93842228      -3.701E-06    921.14    <-- DIS
     326     255.93574846     255.93669629      -3.703E-06    924.05    <-- DIS
     327     255.93404729     255.93499566      -3.706E-06    926.96    <-- DIS
     328     255.93237122     255.93331998      -3.707E-06    929.88    <-- DIS
     329     255.93071988     255.93166887      -3.708E-06    932.78    <-- DIS
     330     255.92909286     255.93004194      -3.708E-06    935.69    <-- DIS
     331     255.92748977     255.92843879      -3.708E-06    938.64    <-- DIS
     332     255.92591025     255.92685907      -3.707E-06    941.58    <-- DIS
     333     255.92435391     255.92530240      -3.706E-06    944.53    <-- DIS
     334     255.92282040     255.92376841      -3.704E-06    947.45    <-- DIS
     335     255.92130934     255.92225676      -3.702E-06    950.39    <-- DIS
     336     255.91982039     255.92076708      -3.699E-06    953.32    <-- DIS
     337     255.91835319     255.91929904      -3.696E-06    956.24    <-- DIS
     338     255.91690742     255.91785230      -3.692E-06    959.16    <-- DIS
     339     255.91548272     255.91642653      -3.688E-06    962.09    <-- DIS
     340     255.91407878     255.91502140      -3.683E-06    965.04    <-- DIS
     341     255.91269526     255.91363658      -3.678E-06    968.01    <-- DIS
     342     255.91133184     255.91227177      -3.673E-06    970.98    <-- DIS
     343     255.90998822     255.91092664      -3.667E-06    973.93    <-- DIS
     344     255.90866408     255.90960090      -3.661E-06    976.94    <-- DIS
     345     255.90735912     255.90829425      -3.654E-06    979.90    <-- DIS
     346     255.90607304     255.90700638      -3.647E-06    982.84    <-- DIS
     347     255.90480555     255.90573701      -3.640E-06    985.82    <-- DIS
     348     255.90355636     255.90448586      -3.632E-06    988.75    <-- DIS
     349     255.90232519     255.90325264      -3.624E-06    991.73    <-- DIS
     350     255.90111175     255.90203708      -3.616E-06    994.71    <-- DIS
     351     255.89991578     255.90083890      -3.607E-06    997.70    <-- DIS
     352     255.89873700     255.89965784      -3.598E-06   1000.67    <-- DIS
     353     255.89757516     255.89849363      -3.589E-06   1003.64    <-- DIS
     354     255.89642998     255.89734602      -3.580E-06   1006.62    <-- DIS
     355     255.89530121     255.89621476      -3.570E-06   1009.59    <-- DIS
     356     255.89418860     255.89509958      -3.560E-06   1012.56    <-- DIS
     357     255.89309190     255.89400026      -3.550E-06   1015.55    <-- DIS
     358     255.89201087     255.89291654      -3.539E-06   1018.50    <-- DIS
     359     255.89094527     255.89184819      -3.529E-06   1021.45    <-- DIS
     360     255.88989487     255.89079498      -3.518E-06   1024.41    <-- DIS
     361     255.88885942     255.88975667      -3.506E-06   1027.36    <-- DIS
     362     255.88783871     255.88873304      -3.495E-06   1030.33    <-- DIS
     363     255.88683250     255.88772387      -3.483E-06   1033.28    <-- DIS
     364     255.88584058     255.88672893      -3.472E-06   1036.20    <-- DIS
     365     255.88486274     255.88574802      -3.460E-06   1039.12    <-- DIS
     366     255.88389875     255.88478092      -3.448E-06   1042.08    <-- DIS
     367     255.88294840     255.88382742      -3.435E-06   1045.04    <-- DIS
     368     255.88201150     255.88288731      -3.423E-06   1047.97    <-- DIS
     369     255.88108783     255.88196041      -3.410E-06   1050.93    <-- DIS
     370     255.88017721     255.88104650      -3.397E-06   1053.89    <-- DIS
     371     255.87927942     255.88014539      -3.384E-06   1056.85    <-- DIS
     372     255.87839428     255.87925690      -3.371E-06   1059.80    <-- DIS
     373     255.87752159     255.87838082      -3.358E-06   1062.74    <-- DIS
     374     255.87666118     255.87751699      -3.345E-06   1065.68    <-- DIS
     375     255.87581285     255.87666520      -3.331E-06   1068.62    <-- DIS
     376     255.87497642     255.87582529      -3.318E-06   1071.55    <-- DIS
     377     255.87415172     255.87499708      -3.304E-06   1074.50    <-- DIS
     378     255.87333857     255.87418039      -3.290E-06   1077.41    <-- DIS
     379     255.87253679     255.87337505      -3.276E-06   1080.34    <-- DIS
     380     255.87174623     255.87258089      -3.262E-06   1083.25    <-- DIS
     381     255.87096670     255.87179774      -3.248E-06   1086.17    <-- DIS
     382     255.87019805     255.87102546      -3.234E-06   1089.09    <-- DIS
     383     255.86944011     255.87026386      -3.219E-06   1092.05    <-- DIS
     384     255.86869273     255.86951280      -3.205E-06   1094.98    <-- DIS
     385     255.86795575     255.86877211      -3.191E-06   1097.90    <-- DIS
     386     255.86722901     255.86804165      -3.176E-06   1100.83    <-- DIS
     387     255.86651236     255.86732127      -3.161E-06   1103.77    <-- DIS
     388     255.86580566     255.86661081      -3.147E-06   1106.72    <-- DIS
     389     255.86510875     255.86591014      -3.132E-06   1109.66    <-- DIS
     390     255.86442149     255.86521910      -3.117E-06   1112.61    <-- DIS
     391     255.86374374     255.86453755      -3.102E-06   1115.52    <-- DIS
     392     255.86307535     255.86386536      -3.088E-06   1118.45    <-- DIS
     393     255.86241620     255.86320239      -3.073E-06   1121.36    <-- DIS
     394     255.86176614     255.86254851      -3.058E-06   1124.30    <-- DIS
     395     255.86112505     255.86190358      -3.043E-06   1127.21    <-- DIS
     396     255.86049278     255.86126746      -3.028E-06   1130.14    <-- DIS
     397     255.85986921     255.86064004      -3.013E-06   1133.08    <-- DIS
     398     255.85925422     255.86002119      -2.998E-06   1136.02    <-- DIS
     399     255.85864768     255.85941077      -2.982E-06   1138.96    <-- DIS
     400     255.85804945     255.85880868      -2.967E-06   1141.87    <-- DIS
     401     255.85745943     255.85821478      -2.952E-06   1144.81    <-- DIS
     402     255.85687750     255.85762896      -2.937E-06   1147.77    <-- DIS
     403     255.85630352     255.85705111      -2.922E-06   1150.72    <-- DIS
     404     255.85573740     255.85648109      -2.907E-06   1153.66    <-- DIS
     405     255.85517901     255.85591882      -2.891E-06   1156.62    <-- DIS
     406     255.85462825     255.85536416      -2.876E-06   1159.58    <-- DIS
     407     255.85408500     255.85481701      -2.861E-06   1162.56    <-- DIS
     408     255.85354915     255.85427727      -2.846E-06   1165.51    <-- DIS
     409     255.85302059     255.85374483      -2.831E-06   1168.46    <-- DIS
     410     255.85249923     255.85321957      -2.815E-06   1171.41    <-- DIS
     411     255.85198495     255.85270141      -2.800E-06   1174.40    <-- DIS
     412     255.85147766     255.85219023      -2.785E-06   1177.36    <-- DIS
     413     255.85097725     255.85168593      -2.770E-06   1180.33    <-- DIS
     414     255.85048363     255.85118843      -2.755E-06   1183.27    <-- DIS
     415     255.84999669     255.85069761      -2.740E-06   1186.23    <-- DIS
     416     255.84951635     255.85021339      -2.724E-06   1189.20    <-- DIS
     417     255.84904250     255.84973567      -2.709E-06   1192.15    <-- DIS
     418     255.84857505     255.84926435      -2.694E-06   1195.12    <-- DIS
     419     255.84811391     255.84879936      -2.679E-06   1198.06    <-- DIS
     420     255.84765900     255.84834059      -2.664E-06   1200.99    <-- DIS
     421     255.84721021     255.84788796      -2.649E-06   1203.94    <-- DIS
     422     255.84676747     255.84744137      -2.634E-06   1206.88    <-- DIS
     423     255.84633069     255.84700076      -2.619E-06   1209.78    <-- DIS
     424     255.84589978     255.84656602      -2.604E-06   1212.70    <-- DIS
     425     255.84547466     255.84613708      -2.589E-06   1215.58    <-- DIS
     426     255.84505525     255.84571385      -2.574E-06   1218.45    <-- DIS
     427     255.84464146     255.84529626      -2.559E-06   1221.33    <-- DIS
     428     255.84423322     255.84488423      -2.545E-06   1224.24    <-- DIS
     429     255.84383044     255.84447766      -2.530E-06   1227.18    <-- DIS
     430     255.84343305     255.84407650      -2.515E-06   1230.07    <-- DIS
     431     255.84304098     255.84368066      -2.500E-06   1232.95    <-- DIS
     432     255.84265414     255.84329007      -2.486E-06   1235.86    <-- DIS
     433     255.84227247     255.84290465      -2.471E-06   1238.71    <-- DIS
     434     255.84189589     255.84252433      -2.456E-06   1241.60    <-- DIS
     435     255.84152433     255.84214904      -2.442E-06   1244.45    <-- DIS
     436     255.84115771     255.84177871      -2.427E-06   1247.32    <-- DIS
     437     255.84079597     255.84141327      -2.413E-06   1250.20    <-- DIS
     438     255.84043905     255.84105265      -2.398E-06   1253.07    <-- DIS
     439     255.84008686     255.84069679      -2.384E-06   1255.96    <-- DIS
     440     255.83973935     255.84034561      -2.370E-06   1258.85    <-- DIS
     441     255.83939645     255.83999905      -2.355E-06   1261.71    <-- DIS
     442     255.83905809     255.83965706      -2.341E-06   1264.58    <-- DIS
     443     255.83872422     255.83931955      -2.327E-06   1267.45    <-- DIS
     444     255.83839476     255.83898648      -2.313E-06   1270.29    <-- DIS
     445     255.83806966     255.83865777      -2.299E-06   1273.15    <-- DIS
     446     255.83774886     255.83833338      -2.285E-06   1275.99    <-- DIS
     447     255.83743229     255.83801323      -2.271E-06   1278.82    <-- DIS
     448     255.83711990     255.83769727      -2.257E-06   1281.65    <-- DIS
     449     255.83681163     255.83738545      -2.243E-06   1284.48    <-- DIS
     450     255.83650741     255.83707770      -2.229E-06   1287.32    <-- DIS
     451     255.83620721     255.83677397      -2.215E-06   1290.20    <-- DIS
     452     255.83591095     255.83647420      -2.202E-06   1293.08    <-- DIS
     453     255.83561858     255.83617834      -2.188E-06   1295.95    <-- DIS
     454     255.83533006     255.83588633      -2.174E-06   1298.83    <-- DIS
     455     255.83504532     255.83559813      -2.161E-06   1301.71    <-- DIS
     456     255.83476432     255.83531367      -2.147E-06   1304.60    <-- DIS
     457     255.83448699     255.83503292      -2.134E-06   1307.48    <-- DIS
     458     255.83421331     255.83475580      -2.121E-06   1310.35    <-- DIS
     459     255.83394320     255.83448229      -2.107E-06   1313.25    <-- DIS
     460     255.83367662     255.83421232      -2.094E-06   1316.13    <-- DIS
     461     255.83341353     255.83394585      -2.081E-06   1319.00    <-- DIS
     462     255.83315387     255.83368283      -2.068E-06   1321.88    <-- DIS
     463     255.83289760     255.83342321      -2.055E-06   1324.76    <-- DIS
     464     255.83264467     255.83316695      -2.041E-06   1327.66    <-- DIS
     465     255.83239504     255.83291400      -2.029E-06   1330.55    <-- DIS
     466     255.83214866     255.83266432      -2.016E-06   1333.43    <-- DIS
     467     255.83190548     255.83241785      -2.003E-06   1336.34    <-- DIS
     468     255.83166546     255.83217457      -1.990E-06   1339.22    <-- DIS
     469     255.83142857     255.83193442      -1.977E-06   1342.11    <-- DIS
     470     255.83119474     255.83169735      -1.965E-06   1345.00    <-- DIS
     471     255.83096396     255.83146334      -1.952E-06   1347.89    <-- DIS
     472     255.83073616     255.83123234      -1.939E-06   1350.77    <-- DIS
     473     255.83051131     255.83100430      -1.927E-06   1353.67    <-- DIS
     474     255.83028938     255.83077919      -1.915E-06   1356.55    <-- DIS
     475     255.83007031     255.83055697      -1.902E-06   1359.43    <-- DIS
     476     255.82985408     255.83033759      -1.890E-06   1362.34    <-- DIS
     477     255.82964064     255.83012102      -1.878E-06   1365.23    <-- DIS
     478     255.82942996     255.82990723      -1.866E-06   1368.14    <-- DIS
     479     255.82922200     255.82969617      -1.853E-06   1371.08    <-- DIS
     480     255.82901671     255.82948780      -1.841E-06   1374.01    <-- DIS
     481     255.82881407     255.82928210      -1.829E-06   1376.89    <-- DIS
     482     255.82861404     255.82907902      -1.818E-06   1379.77    <-- DIS
     483     255.82841659     255.82887853      -1.806E-06   1382.64    <-- DIS
     484     255.82822167     255.82868060      -1.794E-06   1385.56    <-- DIS
     485     255.82802925     255.82848518      -1.782E-06   1388.45    <-- DIS
     486     255.82783931     255.82829225      -1.770E-06   1391.38    <-- DIS
     487     255.82765180     255.82810178      -1.759E-06   1394.27    <-- DIS
     488     255.82746670     255.82791372      -1.747E-06   1397.16    <-- DIS
     489     255.82728397     255.82772806      -1.736E-06   1400.09    <-- DIS
     490     255.82710358     255.82754475      -1.724E-06   1403.01    <-- DIS
     491     255.82692550     255.82736376      -1.713E-06   1405.91    <-- DIS
     492     255.82674969     255.82718507      -1.702E-06   1408.80    <-- DIS
     493     255.82657613     255.82700863      -1.691E-06   1411.67    <-- DIS
     494     255.82640479     255.82683444      -1.679E-06   1414.51    <-- DIS
     495     255.82623564     255.82666244      -1.668E-06   1417.35    <-- DIS
     496     255.82606864     255.82649262      -1.657E-06   1420.20    <-- DIS
     497     255.82590377     255.82632494      -1.646E-06   1423.00    <-- DIS
     498     255.82574100     255.82615938      -1.635E-06   1425.85    <-- DIS
     499     255.82558030     255.82599590      -1.625E-06   1428.69    <-- DIS
     500     255.82542165     255.82583449      -1.614E-06   1431.56    <-- DIS
     501     255.82526501     255.82567511      -1.603E-06   1434.42    <-- DIS
     502     255.82511036     255.82551773      -1.592E-06   1437.27    <-- DIS
     503     255.82495768     255.82536233      -1.582E-06   1440.13    <-- DIS
     504     255.82480693     255.82520889      -1.571E-06   1443.03    <-- DIS
     505     255.82465810     255.82505737      -1.561E-06   1445.88    <-- DIS
     506     255.82451115     255.82490775      -1.550E-06   1448.70    <-- DIS
     507     255.82436606     255.82476001      -1.540E-06   1451.56    <-- DIS
     508     255.82422281     255.82461413      -1.530E-06   1454.45    <-- DIS
     509     255.82408137     255.82447007      -1.519E-06   1457.30    <-- DIS
     510     255.82394171     255.82432781      -1.509E-06   1460.18    <-- DIS
     511     255.82380382     255.82418733      -1.499E-06   1463.05    <-- DIS
     512     255.82366768     255.82404861      -1.489E-06   1465.89    <-- DIS
     513     255.82353324     255.82391162      -1.479E-06   1468.76    <-- DIS
     514     255.82340051     255.82377634      -1.469E-06   1471.61    <-- DIS
     515     255.82326944     255.82364275      -1.459E-06   1474.52    <-- DIS
     516     255.82314003     255.82351082      -1.449E-06   1477.40    <-- DIS
     517     255.82301225     255.82338054      -1.440E-06   1480.29    <-- DIS
     518     255.82288607     255.82325188      -1.430E-06   1483.17    <-- DIS
     519     255.82276147     255.82312482      -1.420E-06   1486.05    <-- DIS
     520     255.82263845     255.82299934      -1.411E-06   1488.92    <-- DIS
     521     255.82251696     255.82287542      -1.401E-06   1491.84    <-- DIS
     522     255.82239700     255.82275304      -1.392E-06   1494.80    <-- DIS
     523     255.82227855     255.82263218      -1.382E-06   1497.75    <-- DIS
     524     255.82216158     255.82251281      -1.373E-06   1500.67    <-- DIS
     525     255.82204607     255.82239493      -1.364E-06   1503.58    <-- DIS
     526     255.82193201     255.82227851      -1.354E-06   1506.51    <-- DIS
     527     255.82181938     255.82216352      -1.345E-06   1509.43    <-- DIS
     528     255.82170815     255.82204996      -1.336E-06   1512.35    <-- DIS
     529     255.82159831     255.82193781      -1.327E-06   1515.25    <-- DIS
     530     255.82148984     255.82182704      -1.318E-06   1518.14    <-- DIS
     531     255.82138273     255.82171763      -1.309E-06   1521.06    <-- DIS
     532     255.82127695     255.82160958      -1.300E-06   1523.96    <-- DIS
     533     255.82117249     255.82150286      -1.291E-06   1526.86    <-- DIS
     534     255.82106934     255.82139745      -1.283E-06   1529.79    <-- DIS
     535     255.82096746     255.82129334      -1.274E-06   1532.71    <-- DIS
     536     255.82086685     255.82119052      -1.265E-06   1535.62    <-- DIS
     537     255.82076750     255.82108896      -1.257E-06   1538.54    <-- DIS
     538     255.82066938     255.82098864      -1.248E-06   1541.44    <-- DIS
     539     255.82057247     255.82088956      -1.240E-06   1544.36    <-- DIS
     540     255.82047677     255.82079170      -1.231E-06   1547.26    <-- DIS
     541     255.82038226     255.82069504      -1.223E-06   1550.17    <-- DIS
     542     255.82028891     255.82059956      -1.214E-06   1553.11    <-- DIS
     543     255.82019673     255.82050525      -1.206E-06   1556.02    <-- DIS
     544     255.82010568     255.82041210      -1.198E-06   1558.94    <-- DIS
     545     255.82001576     255.82032008      -1.190E-06   1561.83    <-- DIS
     546     255.81992696     255.82022919      -1.181E-06   1564.73    <-- DIS
     547     255.81983925     255.82013942      -1.173E-06   1567.64    <-- DIS
     548     255.81975262     255.82005074      -1.165E-06   1570.56    <-- DIS
     549     255.81966707     255.81996314      -1.157E-06   1573.47    <-- DIS
     550     255.81958256     255.81987661      -1.149E-06   1576.40    <-- DIS
     551     255.81949911     255.81979114      -1.142E-06   1579.33    <-- DIS
     552     255.81941668     255.81970671      -1.134E-06   1582.24    <-- DIS
     553     255.81933526     255.81962330      -1.126E-06   1585.14    <-- DIS
     554     255.81925485     255.81954092      -1.118E-06   1588.05    <-- DIS
     555     255.81917542     255.81945953      -1.111E-06   1590.99    <-- DIS
     556     255.81909698     255.81937913      -1.103E-06   1593.92    <-- DIS
     557     255.81901949     255.81929971      -1.095E-06   1596.86    <-- DIS
     558     255.81894296     255.81922126      -1.088E-06   1599.79    <-- DIS
     559     255.81886737     255.81914375      -1.080E-06   1602.79    <-- DIS
     560     255.81879271     255.81906719      -1.073E-06   1605.76    <-- DIS
     561     255.81871896     255.81899156      -1.066E-06   1608.68    <-- DIS
     562     255.81864611     255.81891684      -1.058E-06   1611.61    <-- DIS
     563     255.81857416     255.81884302      -1.051E-06   1614.53    <-- DIS
     564     255.81850309     255.81877010      -1.044E-06   1617.47    <-- DIS
     565     255.81843288     255.81869806      -1.037E-06   1620.39    <-- DIS
     566     255.81836354     255.81862689      -1.029E-06   1623.35    <-- DIS
     567     255.81829504     255.81855658      -1.022E-06   1626.27    <-- DIS
     568     255.81822738     255.81848712      -1.015E-06   1629.22    <-- DIS
     569     255.81816055     255.81841850      -1.008E-06   1632.15    <-- DIS
     570     255.81809453     255.81835070      -1.001E-06   1635.10    <-- DIS
     571     255.81802931     255.81828372      -9.945E-07   1638.05    <-- DIS
     572     255.81796489     255.81821755      -9.876E-07   1641.01    <-- DIS
     573     255.81790126     255.81815217      -9.808E-07   1643.97    <-- DIS
     574     255.81783840     255.81808758      -9.741E-07   1646.91    <-- DIS
     575     255.81777630     255.81802377      -9.673E-07   1649.87    <-- DIS
     576     255.81771496     255.81796072      -9.607E-07   1652.81    <-- DIS
     577     255.81765437     255.81789843      -9.541E-07   1655.75    <-- DIS
     578     255.81759451     255.81783689      -9.475E-07   1658.71    <-- DIS
     579     255.81753538     255.81777609      -9.409E-07   1661.63    <-- DIS
     580     255.81747697     255.81771601      -9.344E-07   1664.65    <-- DIS
     581     255.81741926     255.81765666      -9.280E-07   1667.63    <-- DIS
     582     255.81736225     255.81759801      -9.216E-07   1670.57    <-- DIS
     583     255.81730594     255.81754007      -9.152E-07   1673.55    <-- DIS
     584     255.81725030     255.81748282      -9.089E-07   1676.47    <-- DIS
     585     255.81719534     255.81742625      -9.026E-07   1679.37    <-- DIS
     586     255.81714105     255.81737036      -8.964E-07   1682.35    <-- DIS
     587     255.81708741     255.81731514      -8.902E-07   1685.25    <-- DIS
     588     255.81703442     255.81726057      -8.840E-07   1688.19    <-- DIS
     589     255.81698206     255.81720666      -8.779E-07   1691.11    <-- DIS
     590     255.81693035     255.81715339      -8.719E-07   1694.06    <-- DIS
     591     255.81687925     255.81710075      -8.658E-07   1697.02    <-- DIS
     592     255.81682877     255.81704874      -8.599E-07   1699.97    <-- DIS
     593     255.81677890     255.81699735      -8.539E-07   1702.87    <-- DIS
     594     255.81672963     255.81694657      -8.480E-07   1705.81    <-- DIS
     595     255.81668095     255.81689639      -8.422E-07   1708.75    <-- DIS
     596     255.81663286     255.81684681      -8.363E-07   1711.66    <-- DIS
     597     255.81658535     255.81679781      -8.305E-07   1714.60    <-- DIS
     598     255.81653840     255.81674940      -8.248E-07   1717.53    <-- DIS
     599     255.81649203     255.81670156      -8.191E-07   1720.47    <-- DIS
     600     255.81644620     255.81665429      -8.134E-07   1723.41    <-- DIS
     601     255.81640093     255.81660758      -8.078E-07   1726.32    <-- DIS
     602     255.81635620     255.81656142      -8.022E-07   1729.25    <-- DIS
     603     255.81631201     255.81651581      -7.967E-07   1732.17    <-- DIS
     604     255.81626835     255.81647074      -7.912E-07   1735.10    <-- DIS
     605     255.81622521     255.81642620      -7.857E-07   1738.05    <-- DIS
     606     255.81618259     255.81638219      -7.802E-07   1740.95    <-- DIS
     607     255.81614047     255.81633869      -7.748E-07   1743.86    <-- DIS
     608     255.81609886     255.81629571      -7.695E-07   1746.77    <-- DIS
     609     255.81605775     255.81625324      -7.642E-07   1749.65    <-- DIS
     610     255.81601713     255.81621126      -7.589E-07   1752.57    <-- DIS
     611     255.81597699     255.81616978      -7.536E-07   1755.46    <-- DIS
     612     255.81593733     255.81612879      -7.484E-07   1758.39    <-- DIS
     613     255.81589815     255.81608828      -7.432E-07   1761.30    <-- DIS
     614     255.81585943     255.81604825      -7.381E-07   1764.27    <-- DIS
     615     255.81582118     255.81600868      -7.330E-07   1767.22    <-- DIS
     616     255.81578338     255.81596959      -7.279E-07   1770.18    <-- DIS
     617     255.81574603     255.81593095      -7.229E-07   1773.08    <-- DIS
     618     255.81570912     255.81589276      -7.179E-07   1776.01    <-- DIS
     619     255.81567265     255.81585502      -7.129E-07   1778.98    <-- DIS
     620     255.81563662     255.81581773      -7.080E-07   1781.94    <-- DIS
     621     255.81560102     255.81578087      -7.031E-07   1784.88    <-- DIS
     622     255.81556583     255.81574444      -6.982E-07   1787.81    <-- DIS
     623     255.81553107     255.81570844      -6.934E-07   1790.73    <-- DIS
     624     255.81549672     255.81567286      -6.886E-07   1793.71    <-- DIS
     625     255.81546277     255.81563770      -6.838E-07   1796.64    <-- DIS
     626     255.81542923     255.81560294      -6.791E-07   1799.62    <-- DIS
     627     255.81539608     255.81556860      -6.744E-07   1802.61    <-- DIS
     628     255.81536333     255.81553465      -6.697E-07   1805.55    <-- DIS
     629     255.81533096     255.81550110      -6.651E-07   1808.49    <-- DIS
     630     255.81529898     255.81546794      -6.605E-07   1811.44    <-- DIS
     631     255.81526738     255.81543516      -6.559E-07   1814.35    <-- DIS
     632     255.81523614     255.81540277      -6.514E-07   1817.28    <-- DIS
     633     255.81520528     255.81537076      -6.468E-07   1820.23    <-- DIS
     634     255.81517478     255.81533911      -6.424E-07   1823.18    <-- DIS
     635     255.81514465     255.81530784      -6.379E-07   1826.10    <-- DIS
     636     255.81511486     255.81527693      -6.335E-07   1829.05    <-- DIS
     637     255.81508543     255.81524637      -6.291E-07   1832.01    <-- DIS
     638     255.81505635     255.81521618      -6.248E-07   1834.97    <-- DIS
     639     255.81502760     255.81518633      -6.205E-07   1837.90    <-- DIS
     640     255.81499920     255.81515683      -6.162E-07   1840.87    <-- DIS
     641     255.81497113     255.81512767      -6.119E-07   1843.83    <-- DIS
     642     255.81494339     255.81509884      -6.077E-07   1846.80    <-- DIS
     643     255.81491598     255.81507036      -6.035E-07   1849.77    <-- DIS
     644     255.81488889     255.81504220      -5.993E-07   1852.71    <-- DIS
     645     255.81486211     255.81501436      -5.952E-07   1855.66    <-- DIS
     646     255.81483565     255.81498685      -5.910E-07   1858.61    <-- DIS
     647     255.81480950     255.81495966      -5.870E-07   1861.56    <-- DIS
     648     255.81478366     255.81493278      -5.829E-07   1864.54    <-- DIS
     649     255.81475812     255.81490621      -5.789E-07   1867.50    <-- DIS
     650     255.81473288     255.81487994      -5.749E-07   1870.46    <-- DIS
     651     255.81470794     255.81485398      -5.709E-07   1873.41    <-- DIS
     652     255.81468329     255.81482832      -5.670E-07   1876.37    <-- DIS
     653     255.81465892     255.81480295      -5.630E-07   1879.31    <-- DIS
     654     255.81463484     255.81477788      -5.591E-07   1882.26    <-- DIS
     655     255.81461104     255.81475309      -5.553E-07   1885.18    <-- DIS
     656     255.81458752     255.81472859      -5.514E-07   1888.12    <-- DIS
     657     255.81456428     255.81470437      -5.476E-07   1891.08    <-- DIS
     658     255.81454130     255.81468043      -5.439E-07   1894.08    <-- DIS
     659     255.81451860     255.81465676      -5.401E-07   1897.10    <-- DIS
     660     255.81449616     255.81463337      -5.364E-07   1900.07    <-- DIS
     661     255.81447398     255.81461024      -5.327E-07   1903.04    <-- DIS
     662     255.81445206     255.81458738      -5.290E-07   1906.03    <-- DIS
     663     255.81443039     255.81456478      -5.253E-07   1909.01    <-- DIS
     664     255.81440898     255.81454244      -5.217E-07   1911.99    <-- DIS
     665     255.81438781     255.81452035      -5.181E-07   1914.99    <-- DIS
     666     255.81436689     255.81449852      -5.145E-07   1917.98    <-- DIS
     667     255.81434622     255.81447694      -5.110E-07   1920.99    <-- DIS
     668     255.81432578     255.81445560      -5.075E-07   1924.00    <-- DIS
     669     255.81430558     255.81443451      -5.040E-07   1926.99    <-- DIS
     670     255.81428562     255.81441365      -5.005E-07   1930.01    <-- DIS
     671     255.81426589     255.81439304      -4.970E-07   1933.03    <-- DIS
     672     255.81424638     255.81437266      -4.936E-07   1936.02    <-- DIS
     673     255.81422711     255.81435251      -4.902E-07   1939.00    <-- DIS
     674     255.81420805     255.81433259      -4.868E-07   1941.97    <-- DIS
     675     255.81418922     255.81431290      -4.835E-07   1944.92    <-- DIS
     676     255.81417060     255.81429343      -4.801E-07   1947.89    <-- DIS
     677     255.81415220     255.81427419      -4.768E-07   1950.86    <-- DIS
     678     255.81413402     255.81425516      -4.736E-07   1953.83    <-- DIS
     679     255.81411604     255.81423635      -4.703E-07   1956.81    <-- DIS
     680     255.81409827     255.81421775      -4.671E-07   1959.81    <-- DIS
     681     255.81408071     255.81419936      -4.638E-07   1962.80    <-- DIS
     682     255.81406335     255.81418118      -4.606E-07   1965.78    <-- DIS
     683     255.81404618     255.81416321      -4.575E-07   1968.76    <-- DIS
     684     255.81402922     255.81414544      -4.543E-07   1971.71    <-- DIS
     685     255.81401245     255.81412788      -4.512E-07   1974.70    <-- DIS
     686     255.81399588     255.81411051      -4.481E-07   1977.69    <-- DIS
     687     255.81397950     255.81409334      -4.450E-07   1980.65    <-- DIS
     688     255.81396330     255.81407636      -4.420E-07   1983.65    <-- DIS
     689     255.81394729     255.81405957      -4.389E-07   1986.66    <-- DIS
     690     255.81393147     255.81404298      -4.359E-07   1989.65    <-- DIS
     691     255.81391583     255.81402657      -4.329E-07   1992.80    <-- DIS
     692     255.81390036     255.81401034      -4.299E-07   1995.78    <-- DIS
     693     255.81388508     255.81399430      -4.270E-07   1998.78    <-- DIS
     694     255.81386997     255.81397844      -4.240E-07   2001.77    <-- DIS
     695     255.81385503     255.81396276      -4.211E-07   2004.76    <-- DIS
     696     255.81384027     255.81394726      -4.182E-07   2007.74    <-- DIS
     697     255.81382567     255.81393192      -4.154E-07   2010.71    <-- DIS
     698     255.81381124     255.81391677      -4.125E-07   2013.68    <-- DIS
     699     255.81379698     255.81390178      -4.097E-07   2016.61    <-- DIS
     700     255.81378288     255.81388696      -4.069E-07   2019.53    <-- DIS
     701     255.81376894     255.81387231      -4.041E-07   2022.47    <-- DIS
     702     255.81375516     255.81385782      -4.013E-07   2025.37    <-- DIS
     703     255.81374154     255.81384349      -3.985E-07   2028.30    <-- DIS
     704     255.81372808     255.81382933      -3.958E-07   2031.23    <-- DIS
     705     255.81371476     255.81381532      -3.931E-07   2034.18    <-- DIS
     706     255.81370160     255.81380147      -3.904E-07   2037.11    <-- DIS
     707     255.81368860     255.81378778      -3.877E-07   2040.04    <-- DIS
     708     255.81367573     255.81377424      -3.851E-07   2042.96    <-- DIS
     709     255.81366302     255.81376085      -3.824E-07   2045.92    <-- DIS
     710     255.81365045     255.81374761      -3.798E-07   2048.90    <-- DIS
     711     255.81363802     255.81373452      -3.772E-07   2051.83    <-- DIS
     712     255.81362574     255.81372157      -3.746E-07   2054.76    <-- DIS
     713     255.81361359     255.81370877      -3.721E-07   2057.68    <-- DIS
     714     255.81360159     255.81369611      -3.695E-07   2060.61    <-- DIS
     715     255.81358972     255.81368359      -3.670E-07   2063.56    <-- DIS
     716     255.81357798     255.81367122      -3.645E-07   2066.48    <-- DIS
     717     255.81356638     255.81365898      -3.620E-07   2069.39    <-- DIS
     718     255.81355491     255.81364687      -3.595E-07   2072.33    <-- DIS
     719     255.81354357     255.81363491      -3.570E-07   2075.27    <-- DIS
     720     255.81353236     255.81362307      -3.546E-07   2078.20    <-- DIS
     721     255.81352128     255.81361137      -3.522E-07   2081.13    <-- DIS
     722     255.81351032     255.81359979      -3.498E-07   2084.07    <-- DIS
     723     255.81349948     255.81358835      -3.474E-07   2086.97    <-- DIS
     724     255.81348877     255.81357703      -3.450E-07   2089.89    <-- DIS
     725     255.81347818     255.81356584      -3.426E-07   2092.83    <-- DIS
     726     255.81346771     255.81355477      -3.403E-07   2095.77    <-- DIS
     727     255.81345736     255.81354382      -3.380E-07   2098.72    <-- DIS
     728     255.81344713     255.81353300      -3.357E-07   2101.65    <-- DIS
     729     255.81343701     255.81352229      -3.334E-07   2104.59    <-- DIS
     730     255.81342701     255.81351171      -3.311E-07   2107.53    <-- DIS
     731     255.81341711     255.81350124      -3.288E-07   2110.49    <-- DIS
     732     255.81340733     255.81349088      -3.266E-07   2113.43    <-- DIS
     733     255.81339767     255.81348064      -3.244E-07   2116.35    <-- DIS
     734     255.81338811     255.81347052      -3.222E-07   2119.24    <-- DIS
     735     255.81337865     255.81346050      -3.200E-07   2122.15    <-- DIS
     736     255.81336931     255.81345060      -3.178E-07   2125.05    <-- DIS
     737     255.81336007     255.81344081      -3.156E-07   2127.94    <-- DIS
     738     255.81335093     255.81343112      -3.135E-07   2130.85    <-- DIS
     739     255.81334190     255.81342154      -3.113E-07   2133.74    <-- DIS
     740     255.81333297     255.81341207      -3.092E-07   2136.63    <-- DIS
     741     255.81332413     255.81340270      -3.071E-07   2139.52    <-- DIS
     742     255.81331540     255.81339343      -3.050E-07   2142.38    <-- DIS
     743     255.81330677     255.81338426      -3.029E-07   2145.29    <-- DIS
     744     255.81329823     255.81337520      -3.009E-07   2148.14    <-- DIS
     745     255.81328979     255.81336624      -2.988E-07   2151.02    <-- DIS
     746     255.81328144     255.81335737      -2.968E-07   2153.91    <-- DIS
     747     255.81327319     255.81334860      -2.948E-07   2156.79    <-- DIS
     748     255.81326503     255.81333993      -2.928E-07   2159.74    <-- DIS
     749     255.81325696     255.81333135      -2.908E-07   2162.68    <-- DIS
     750     255.81324899     255.81332287      -2.888E-07   2165.62    <-- DIS
     751     255.81324110     255.81331448      -2.869E-07   2168.53    <-- DIS
     752     255.81323330     255.81330618      -2.849E-07   2171.47    <-- DIS
[...]
  WF centre and spread   63  (  0.000001, -0.173837, 28.678013 )     3.28849972
  WF centre and spread   64  ( -0.000001, -0.133478, 28.732989 )     2.98069888
  WF centre and spread   65  ( -0.000000,  0.178871, 28.677912 )     3.28754806
  WF centre and spread   66  (  0.000000,  0.136252, 28.733125 )     2.98011341
  WF centre and spread   67  ( -0.000001, -0.001157, 69.736814 )     3.06424536
  WF centre and spread   68  (  0.000000, -0.002288, 69.698984 )     3.23109699
  WF centre and spread   69  (  0.000004, -0.133621, 69.659653 )     2.98225975
  WF centre and spread   70  ( -0.000004, -0.174027, 69.604336 )     3.29316452
  WF centre and spread   71  (  0.000000,  0.136514, 69.659552 )     2.98214028
  WF centre and spread   72  ( -0.000000,  0.178681, 69.604418 )     3.29186755
  WF centre and spread   73  ( -0.000000, -0.000000, -0.000024 )     0.64061216
  WF centre and spread   74  (  0.000000, -0.000002, -0.000357 )     1.24546158
  WF centre and spread   75  (  0.000000, -0.000002, -0.000026 )     0.66697153
  WF centre and spread   76  ( -0.000000,  0.000066, -0.000168 )     1.05777314
  WF centre and spread   77  (  0.000000,  0.000000, -0.000019 )     0.66571641
  WF centre and spread   78  ( -0.000000, -0.000064, -0.000233 )     1.05372631
  WF centre and spread   79  ( -0.000000, -0.000001, -0.000004 )     0.66435280
  WF centre and spread   80  (  0.000000, -0.000008, -0.000060 )     1.22465314
  WF centre and spread   81  (  0.000000, -0.000006, -0.000006 )     0.66421270
  WF centre and spread   82  ( -0.000000,  0.000007, -0.000084 )     1.22500671
  WF centre and spread   83  (  0.000000,  0.000011, 40.926358 )     1.24559346
  WF centre and spread   84  ( -0.000000,  0.000014, 40.926029 )     0.64063236
  WF centre and spread   85  (  0.000000, -0.000056, 40.926226 )     1.05527787
  WF centre and spread   86  ( -0.000000,  0.000015, 40.926023 )     0.66706100
  WF centre and spread   87  ( -0.000000,  0.000085, 40.926173 )     1.05645487
  WF centre and spread   88  ( -0.000000,  0.000011, 40.926031 )     0.66564684
  WF centre and spread   89  (  0.000000,  0.000018, 40.926086 )     1.22507586
  WF centre and spread   90  ( -0.000000,  0.000008, 40.926009 )     0.66422475
  WF centre and spread   91  ( -0.000000,  0.000014, 40.926065 )     1.22476973
  WF centre and spread   92  (  0.000000,  0.000012, 40.926007 )     0.66439885
  Sum of centres and spreads (  0.000001,  0.000554,********** )   267.95181572
 
     99    -0.227E-02     0.1514580626      267.9518167325    6542.88  <-- CONV
        O_D=      0.5304057 O_OD=     11.6088926 O_TOT=    267.9518167 <-- SPRD
 Delta: O_D= -0.3044486E-04 O_OD= -0.2239143E-02 O_TOT= -0.2269588E-02 <-- DLTA
 ------------------------------------------------------------------------------
 Cycle:    100
  WF centre and spread    1  (  0.000001, -0.000596, 17.272086 )     4.15836092
  WF centre and spread    2  ( -0.000001, -0.000732, 17.176452 )     4.73333010
  WF centre and spread    3  ( -0.000001, -0.065377, 17.321871 )     3.85197141
  WF centre and spread    4  (  0.000001, -0.093229, 17.266691 )     4.27051772
  WF centre and spread    5  ( -0.000000,  0.066932, 17.321911 )     3.85226488
  WF centre and spread    6  (  0.000000,  0.095220, 17.266490 )     4.26780464
  WF centre and spread    7  ( -0.000000, -0.001628, 58.100142 )     4.71350404
  WF centre and spread    8  (  0.000000,  0.000048, 58.196052 )     4.14487531
  WF centre and spread    9  (  0.000000, -0.092021, 58.190158 )     4.24845270
  WF centre and spread   10  (  0.000000, -0.064209, 58.245745 )     3.83688719
  WF centre and spread   11  (  0.000001,  0.094931, 58.190532 )     4.25095521
  WF centre and spread   12  ( -0.000001,  0.064849, 58.245439 )     3.83549590
  WF centre and spread   13  (  0.000001,  0.001439, 23.749584 )     4.73347578
  WF centre and spread   14  ( -0.000001,  0.000179, 23.653879 )     4.15820175
  WF centre and spread   15  ( -0.000001,  0.093249, 23.659515 )     4.26792734
  WF centre and spread   16  (  0.000001,  0.065525, 23.604036 )     3.85237333
  WF centre and spread   17  ( -0.000001, -0.096139, 23.659385 )     4.27004233
  WF centre and spread   18  (  0.000001, -0.066249, 23.604137 )     3.85173606
  WF centre and spread   19  ( -0.000002,  0.000801, 64.581927 )     4.14514404
  WF centre and spread   20  (  0.000002,  0.000480, 64.677852 )     4.71342012
  WF centre and spread   21  ( -0.000000,  0.064126, 64.532550 )     3.83563443
  WF centre and spread   22  (  0.000001,  0.091978, 64.587387 )     4.25152429
  WF centre and spread   23  (  0.000000, -0.065815, 64.532303 )     3.83679418
  WF centre and spread   24  (  0.000000, -0.093774, 64.587832 )     4.24822942
  WF centre and spread   25  ( -0.000000, -0.000534,  5.463329 )     3.18770386
  WF centre and spread   26  (  0.000000,  0.000595,  5.493371 )     3.07353485
  WF centre and spread   27  (  0.000000,  0.023586,  5.436110 )     3.15026092
  WF centre and spread   28  ( -0.000000,  0.036815,  5.465323 )     2.95459415
  WF centre and spread   29  ( -0.000000, -0.023146,  5.436173 )     3.15005591
  WF centre and spread   30  (  0.000000, -0.038255,  5.464892 )     2.95314074
  WF centre and spread   31  ( -0.000000, -0.000088, 46.402236 )     3.08005398
  WF centre and spread   32  (  0.000000,  0.000432, 46.372583 )     3.19387680
  WF centre and spread   33  (  0.000000,  0.038661, 46.371503 )     2.96618597
  WF centre and spread   34  ( -0.000000,  0.024686, 46.341770 )     3.17049816
  WF centre and spread   35  (  0.000000, -0.038605, 46.371756 )     2.96665395
  WF centre and spread   36  ( -0.000000, -0.025407, 46.341911 )     3.16866185
  WF centre and spread   37  ( -0.000000,  0.000348, 35.432628 )     3.07363557
  WF centre and spread   38  (  0.000000, -0.000641, 35.462716 )     3.18786833
  WF centre and spread   39  ( -0.000000, -0.037313, 35.461123 )     2.95364106
  WF centre and spread   40  (  0.000000, -0.023139, 35.489841 )     3.15091080
  WF centre and spread   41  ( -0.000000,  0.036928, 35.460704 )     2.95422565
  WF centre and spread   42  (  0.000000,  0.024166, 35.489847 )     3.14929714
  WF centre and spread   43  ( -0.000000,  0.000335, 76.405406 )     3.19364474
  WF centre and spread   44  (  0.000000, -0.000374, 76.375764 )     3.08004207
  WF centre and spread   45  (  0.000000, -0.024920, 76.436139 )     3.16968173
  WF centre and spread   46  (  0.000000, -0.038312, 76.406212 )     2.96697083
  WF centre and spread   47  (  0.000000,  0.024846, 76.436206 )     3.16962299
  WF centre and spread   48  ( -0.000000,  0.039479, 76.406494 )     2.96565852
  WF centre and spread   49  ( -0.000000,  0.001210, 12.116039 )     3.06665515
  WF centre and spread   50  (  0.000000,  0.002287, 12.153378 )     3.23273197
  WF centre and spread   51  ( -0.000002,  0.133443, 12.192962 )     2.98079748
  WF centre and spread   52  (  0.000003,  0.174093, 12.248054 )     3.28926468
  WF centre and spread   53  (  0.000000, -0.136208, 12.193047 )     2.98063113
  WF centre and spread   54  ( -0.000000, -0.178774, 12.248009 )     3.28801410
  WF centre and spread   55  ( -0.000000,  0.002367, 53.078911 )     3.23138068
  WF centre and spread   56  (  0.000000,  0.001203, 53.041273 )     3.06457627
  WF centre and spread   57  (  0.000001,  0.173900, 53.173623 )     3.29375813
  WF centre and spread   58  ( -0.000001,  0.133754, 53.118519 )     2.98270750
  WF centre and spread   59  ( -0.000000, -0.178989, 53.173760 )     3.29285759
  WF centre and spread   60  (  0.000000, -0.136391, 53.118352 )     2.98204966
  WF centre and spread   61  (  0.000000, -0.002392, 28.772751 )     3.23242522
  WF centre and spread   62  (  0.000000, -0.001153, 28.809828 )     3.06686183
  WF centre and spread   63  (  0.000001, -0.173867, 28.677978 )     3.28916085
  WF centre and spread   64  ( -0.000001, -0.133500, 28.732957 )     2.98095876
  WF centre and spread   65  ( -0.000000,  0.178931, 28.677876 )     3.28821246
  WF centre and spread   66  (  0.000000,  0.136286, 28.733093 )     2.98037415
  WF centre and spread   67  ( -0.000001, -0.001171, 69.736841 )     3.06448152
  WF centre and spread   68  (  0.000000, -0.002317, 69.699010 )     3.23145877
  WF centre and spread   69  (  0.000004, -0.133643, 69.659620 )     2.98251709
  WF centre and spread   70  ( -0.000004, -0.174056, 69.604300 )     3.29382740
  WF centre and spread   71  (  0.000000,  0.136548, 69.659519 )     2.98239846
  WF centre and spread   72  ( -0.000000,  0.178741, 69.604382 )     3.29253334
  WF centre and spread   73  ( -0.000000, -0.000000, -0.000024 )     0.64061718
  WF centre and spread   74  (  0.000000, -0.000002, -0.000357 )     1.24540220
  WF centre and spread   75  (  0.000000, -0.000002, -0.000026 )     0.66716453
  WF centre and spread   76  ( -0.000000,  0.000066, -0.000168 )     1.05795623
  WF centre and spread   77  (  0.000000,  0.000000, -0.000019 )     0.66590380
  WF centre and spread   78  ( -0.000000, -0.000064, -0.000233 )     1.05390300
  WF centre and spread   79  ( -0.000000, -0.000001, -0.000004 )     0.66447036
  WF centre and spread   80  (  0.000000, -0.000008, -0.000060 )     1.22473174
  WF centre and spread   81  (  0.000000, -0.000006, -0.000006 )     0.66432964
  WF centre and spread   82  ( -0.000000,  0.000007, -0.000084 )     1.22508698
  WF centre and spread   83  (  0.000000,  0.000011, 40.926358 )     1.24553407
  WF centre and spread   84  ( -0.000000,  0.000014, 40.926029 )     0.64063738
  WF centre and spread   85  (  0.000000, -0.000056, 40.926226 )     1.05546012
  WF centre and spread   86  ( -0.000000,  0.000015, 40.926023 )     0.66725432
  WF centre and spread   87  ( -0.000000,  0.000085, 40.926173 )     1.05663265
  WF centre and spread   88  ( -0.000000,  0.000011, 40.926031 )     0.66583381
  WF centre and spread   89  (  0.000000,  0.000018, 40.926086 )     1.22515535
  WF centre and spread   90  ( -0.000000,  0.000008, 40.926009 )     0.66434196
  WF centre and spread   91  ( -0.000000,  0.000014, 40.926065 )     1.22484946
  WF centre and spread   92  (  0.000000,  0.000012, 40.926007 )     0.66451605
  Sum of centres and spreads (  0.000001,  0.000554,********** )   267.94975868
 
    100    -0.206E-02     0.1455890485      267.9497597002    6544.21  <-- CONV
        O_D=      0.5304595 O_OD=     11.6067818 O_TOT=    267.9497597 <-- SPRD
 Delta: O_D=  0.5377786E-04 O_OD= -0.2110810E-02 O_TOT= -0.2057032E-02 <-- DLTA
 ------------------------------------------------------------------------------

 Writing checkpoint file MnBi2Te4.chk... done

 Final State
  WF centre and spread    1  (  0.000001, -0.000596, 17.272086 )     4.15836092
  WF centre and spread    2  ( -0.000001, -0.000732, 17.176452 )     4.73333010
  WF centre and spread    3  ( -0.000001, -0.065377, 17.321871 )     3.85197141
  WF centre and spread    4  (  0.000001, -0.093229, 17.266691 )     4.27051772
  WF centre and spread    5  ( -0.000000,  0.066932, 17.321911 )     3.85226488
  WF centre and spread    6  (  0.000000,  0.095220, 17.266490 )     4.26780464
  WF centre and spread    7  ( -0.000000, -0.001628, 58.100142 )     4.71350404
  WF centre and spread    8  (  0.000000,  0.000048, 58.196052 )     4.14487531
  WF centre and spread    9  (  0.000000, -0.092021, 58.190158 )     4.24845270
  WF centre and spread   10  (  0.000000, -0.064209, 58.245745 )     3.83688719
  WF centre and spread   11  (  0.000001,  0.094931, 58.190532 )     4.25095521
  WF centre and spread   12  ( -0.000001,  0.064849, 58.245439 )     3.83549590
  WF centre and spread   13  (  0.000001,  0.001439, 23.749584 )     4.73347578
  WF centre and spread   14  ( -0.000001,  0.000179, 23.653879 )     4.15820175
  WF centre and spread   15  ( -0.000001,  0.093249, 23.659515 )     4.26792734
  WF centre and spread   16  (  0.000001,  0.065525, 23.604036 )     3.85237333
  WF centre and spread   17  ( -0.000001, -0.096139, 23.659385 )     4.27004233
  WF centre and spread   18  (  0.000001, -0.066249, 23.604137 )     3.85173606
  WF centre and spread   19  ( -0.000002,  0.000801, 64.581927 )     4.14514404
  WF centre and spread   20  (  0.000002,  0.000480, 64.677852 )     4.71342012
  WF centre and spread   21  ( -0.000000,  0.064126, 64.532550 )     3.83563443
  WF centre and spread   22  (  0.000001,  0.091978, 64.587387 )     4.25152429
  WF centre and spread   23  (  0.000000, -0.065815, 64.532303 )     3.83679418
  WF centre and spread   24  (  0.000000, -0.093774, 64.587832 )     4.24822942
  WF centre and spread   25  ( -0.000000, -0.000534,  5.463329 )     3.18770386
  WF centre and spread   26  (  0.000000,  0.000595,  5.493371 )     3.07353485
  WF centre and spread   27  (  0.000000,  0.023586,  5.436110 )     3.15026092
  WF centre and spread   28  ( -0.000000,  0.036815,  5.465323 )     2.95459415
  WF centre and spread   29  ( -0.000000, -0.023146,  5.436173 )     3.15005591
  WF centre and spread   30  (  0.000000, -0.038255,  5.464892 )     2.95314074
  WF centre and spread   31  ( -0.000000, -0.000088, 46.402236 )     3.08005398
  WF centre and spread   32  (  0.000000,  0.000432, 46.372583 )     3.19387680
  WF centre and spread   33  (  0.000000,  0.038661, 46.371503 )     2.96618597
  WF centre and spread   34  ( -0.000000,  0.024686, 46.341770 )     3.17049816
  WF centre and spread   35  (  0.000000, -0.038605, 46.371756 )     2.96665395
  WF centre and spread   36  ( -0.000000, -0.025407, 46.341911 )     3.16866185
  WF centre and spread   37  ( -0.000000,  0.000348, 35.432628 )     3.07363557
  WF centre and spread   38  (  0.000000, -0.000641, 35.462716 )     3.18786833
  WF centre and spread   39  ( -0.000000, -0.037313, 35.461123 )     2.95364106
  WF centre and spread   40  (  0.000000, -0.023139, 35.489841 )     3.15091080
  WF centre and spread   41  ( -0.000000,  0.036928, 35.460704 )     2.95422565
  WF centre and spread   42  (  0.000000,  0.024166, 35.489847 )     3.14929714
  WF centre and spread   43  ( -0.000000,  0.000335, 76.405406 )     3.19364474
  WF centre and spread   44  (  0.000000, -0.000374, 76.375764 )     3.08004207
  WF centre and spread   45  (  0.000000, -0.024920, 76.436139 )     3.16968173
  WF centre and spread   46  (  0.000000, -0.038312, 76.406212 )     2.96697083
  WF centre and spread   47  (  0.000000,  0.024846, 76.436206 )     3.16962299
  WF centre and spread   48  ( -0.000000,  0.039479, 76.406494 )     2.96565852
  WF centre and spread   49  ( -0.000000,  0.001210, 12.116039 )     3.06665515
  WF centre and spread   50  (  0.000000,  0.002287, 12.153378 )     3.23273197
  WF centre and spread   51  ( -0.000002,  0.133443, 12.192962 )     2.98079748
  WF centre and spread   52  (  0.000003,  0.174093, 12.248054 )     3.28926468
  WF centre and spread   53  (  0.000000, -0.136208, 12.193047 )     2.98063113
  WF centre and spread   54  ( -0.000000, -0.178774, 12.248009 )     3.28801410
  WF centre and spread   55  ( -0.000000,  0.002367, 53.078911 )     3.23138068
  WF centre and spread   56  (  0.000000,  0.001203, 53.041273 )     3.06457627
  WF centre and spread   57  (  0.000001,  0.173900, 53.173623 )     3.29375813
  WF centre and spread   58  ( -0.000001,  0.133754, 53.118519 )     2.98270750
  WF centre and spread   59  ( -0.000000, -0.178989, 53.173760 )     3.29285759
  WF centre and spread   60  (  0.000000, -0.136391, 53.118352 )     2.98204966
  WF centre and spread   61  (  0.000000, -0.002392, 28.772751 )     3.23242522
  WF centre and spread   62  (  0.000000, -0.001153, 28.809828 )     3.06686183
  WF centre and spread   63  (  0.000001, -0.173867, 28.677978 )     3.28916085
  WF centre and spread   64  ( -0.000001, -0.133500, 28.732957 )     2.98095876
  WF centre and spread   65  ( -0.000000,  0.178931, 28.677876 )     3.28821246
  WF centre and spread   66  (  0.000000,  0.136286, 28.733093 )     2.98037415
  WF centre and spread   67  ( -0.000001, -0.001171, 69.736841 )     3.06448152
  WF centre and spread   68  (  0.000000, -0.002317, 69.699010 )     3.23145877
  WF centre and spread   69  (  0.000004, -0.133643, 69.659620 )     2.98251709
  WF centre and spread   70  ( -0.000004, -0.174056, 69.604300 )     3.29382740
  WF centre and spread   71  (  0.000000,  0.136548, 69.659519 )     2.98239846
  WF centre and spread   72  ( -0.000000,  0.178741, 69.604382 )     3.29253334
  WF centre and spread   73  ( -0.000000, -0.000000, -0.000024 )     0.64061718
  WF centre and spread   74  (  0.000000, -0.000002, -0.000357 )     1.24540220
  WF centre and spread   75  (  0.000000, -0.000002, -0.000026 )     0.66716453
  WF centre and spread   76  ( -0.000000,  0.000066, -0.000168 )     1.05795623
  WF centre and spread   77  (  0.000000,  0.000000, -0.000019 )     0.66590380
  WF centre and spread   78  ( -0.000000, -0.000064, -0.000233 )     1.05390300
  WF centre and spread   79  ( -0.000000, -0.000001, -0.000004 )     0.66447036
  WF centre and spread   80  (  0.000000, -0.000008, -0.000060 )     1.22473174
  WF centre and spread   81  (  0.000000, -0.000006, -0.000006 )     0.66432964
  WF centre and spread   82  ( -0.000000,  0.000007, -0.000084 )     1.22508698
  WF centre and spread   83  (  0.000000,  0.000011, 40.926358 )     1.24553407
  WF centre and spread   84  ( -0.000000,  0.000014, 40.926029 )     0.64063738
  WF centre and spread   85  (  0.000000, -0.000056, 40.926226 )     1.05546012
  WF centre and spread   86  ( -0.000000,  0.000015, 40.926023 )     0.66725432
  WF centre and spread   87  ( -0.000000,  0.000085, 40.926173 )     1.05663265
  WF centre and spread   88  ( -0.000000,  0.000011, 40.926031 )     0.66583381
  WF centre and spread   89  (  0.000000,  0.000018, 40.926086 )     1.22515535
  WF centre and spread   90  ( -0.000000,  0.000008, 40.926009 )     0.66434196
  WF centre and spread   91  ( -0.000000,  0.000014, 40.926065 )     1.22484946
  WF centre and spread   92  (  0.000000,  0.000012, 40.926007 )     0.66451605
  Sum of centres and spreads (  0.000001,  0.000554,********** )   267.94975868
 
         Spreads (Ang^2)       Omega I      =   255.812518381
        ================       Omega D      =     0.530459525
                               Omega OD     =    11.606781795
    Final Spread (Ang^2)       Omega Total  =   267.949759700
 ------------------------------------------------------------------------------

 Wannier centres written to file MnBi2Te4_centres.xyz
 Time for wannierise          143.190 (sec)

 Writing checkpoint file MnBi2Te4.chk... done

 *---------------------------------------------------------------------------*
 |                               PLOTTING                                    |
 *---------------------------------------------------------------------------*
 
 
 Calculating interpolated band-structure
 
 Time to calculate interpolated band structure     714.018 (sec)
 
 Time for plotting            815.967 (sec)
 Total Execution Time        7864.718 (sec)

 *===========================================================================*
 |                             TIMING INFORMATION                            |
 *===========================================================================*
 |    Tag                                                Ncalls      Time (s)|
 |---------------------------------------------------------------------------|
 |kmesh: get                                        :         1         0.561|
 |overlap: allocate                                 :         1         0.074|
 |overlap: read                                     :         1       478.288|
 |dis: main                                         :         1      6423.528|
 |wann: main                                        :         1       143.189|
 |plot: main                                        :         1       815.967|
 *---------------------------------------------------------------------------*
 
 All done: wannier90 exiting
