
     Program BANDS v.7.2 starts on 16Sep2025 at 18:22:35 

     This program is part of the open-source Quantum ESPRESSO suite
     for quantum simulation of materials; please cite
         "P. Giannozzi et al., J. Phys.:Condens. Matter 21 395502 (2009);
         "P. Giannozzi et al., J. Phys.:Condens. Matter 29 465901 (2017);
         "P. Giannozzi et al., J. Chem. Phys. 152 154105 (2020);
          URL http://www.quantum-espresso.org", 
     in publications or presentations arising from this work. More details at
     http://www.quantum-espresso.org/quote

     Parallel version (MPI), running on    32 processors

     MPI processes distributed on     1 nodes
     R & G space division:  proc/nbgrp/npool/nimage =      32
     92182 MiB available memory on the printing compute node when the environment starts
 

     Reading xml data from directory:

     ./tmp/MnBi2Te4.save/
     file Mn.pbe-spn-kjpaw_psl.0.3.1.UPF: wavefunction(s)  3P 3D renormalized
     file Mn.pbe-spn-kjpaw_psl.0.3.1.UPF: wavefunction(s)  3P 3D renormalized
     file Bi.pbe-dn-kjpaw_psl.1.0.0.UPF: wavefunction(s)  6P 5D renormalized
     file Te.pbe-n-kjpaw_psl.1.0.0.UPF: wavefunction(s)  5S 5P renormalized

     IMPORTANT: XC functional enforced from input :
     Exchange-correlation= PBE
                           (   1   4   3   4   0   0   0)
     Any further DFT definition will be discarded
     Please, verify this is what you really want

 
     Parallelization info
     --------------------
     sticks:   dense  smooth     PW     G-vecs:    dense   smooth      PW
     Min         252     252     75                 5873     5873     962
     Max         253     253     76                 5875     5875     964
     Sum        8079    8079   2413               187971   187971   30811
 
     Using Slab Decomposition
 

     Check: negative core charge=   -0.000015
     Reading collected, re-writing distributed wavefunctions
     high-symmetry point:  0.0000 0.0000 0.0000   x coordinate   0.0000
     high-symmetry point: -5.2686-3.0418 0.2789   x coordinate   6.0900
     high-symmetry point:  0.0000 1.2167 0.0558   x coordinate   6.0900
     high-symmetry point: -5.2686-1.8251 0.3347   x coordinate  12.1801
     high-symmetry point:  0.0000 2.4335 0.1116   x coordinate  12.1801
     high-symmetry point: -5.2686-0.6084 0.3905   x coordinate  18.2701
     high-symmetry point:  0.0000 3.6502 0.1674   x coordinate  18.2701
     high-symmetry point: -5.2686 0.6084 0.4463   x coordinate  24.3602
     high-symmetry point:  0.0000 4.8669 0.2232   x coordinate  24.3602
     high-symmetry point: -5.2686 1.8251 0.5021   x coordinate  30.4502
     high-symmetry point:  0.0000 6.0837 0.2789   x coordinate  30.4502
     high-symmetry point: -5.2686 3.0418 0.5579   x coordinate  36.5403
     high-symmetry point:  1.0537-0.6084 0.0558   x coordinate  36.5403
     high-symmetry point: -4.2149-3.6502 0.3347   x coordinate  42.6303
     high-symmetry point:  1.0537 0.6084 0.1116   x coordinate  42.6303
     high-symmetry point: -4.2149-2.4335 0.3905   x coordinate  48.7203
     high-symmetry point:  1.0537 1.8251 0.1674   x coordinate  48.7203
     high-symmetry point: -4.2149-1.2167 0.4463   x coordinate  54.8104
     high-symmetry point:  1.0537 3.0418 0.2232   x coordinate  54.8104
     high-symmetry point: -4.2149 0.0000 0.5021   x coordinate  60.9004
     high-symmetry point:  1.0537 4.2586 0.2789   x coordinate  60.9004
     high-symmetry point: -4.2149 1.2167 0.5579   x coordinate  66.9905
     high-symmetry point:  1.0537 5.4753 0.3347   x coordinate  66.9905
     high-symmetry point: -4.2149 2.4335 0.6137   x coordinate  73.0805
     high-symmetry point:  2.1074-1.2167 0.1116   x coordinate  73.0805
     high-symmetry point: -3.1612-4.2586 0.3905   x coordinate  79.1706
     high-symmetry point:  2.1074 0.0000 0.1674   x coordinate  79.1706
     high-symmetry point: -3.1612-3.0418 0.4463   x coordinate  85.2606
     high-symmetry point:  2.1074 1.2167 0.2232   x coordinate  85.2606
     high-symmetry point: -3.1612-1.8251 0.5021   x coordinate  91.3507
     high-symmetry point:  2.1074 2.4335 0.2789   x coordinate  91.3507
     high-symmetry point: -3.1612-0.6084 0.5579   x coordinate  97.4407
     high-symmetry point:  2.1074 3.6502 0.3347   x coordinate  97.4407
     high-symmetry point: -3.1612 0.6084 0.6137   x coordinate 103.5307
     high-symmetry point:  2.1074 4.8669 0.3905   x coordinate 103.5307
     high-symmetry point: -3.1612 1.8251 0.6695   x coordinate 109.6208
     high-symmetry point:  3.1612-1.8251 0.1674   x coordinate 109.6208
     high-symmetry point: -2.1074-4.8669 0.4463   x coordinate 115.7108
     high-symmetry point:  3.1612-0.6084 0.2232   x coordinate 115.7108
     high-symmetry point: -2.1074-3.6502 0.5021   x coordinate 121.8009
     high-symmetry point:  3.1612 0.6084 0.2789   x coordinate 121.8009
     high-symmetry point: -2.1074-2.4335 0.5579   x coordinate 127.8909
     high-symmetry point:  3.1612 1.8251 0.3347   x coordinate 127.8909
     high-symmetry point: -2.1074-1.2167 0.6137   x coordinate 133.9810
     high-symmetry point:  3.1612 3.0418 0.3905   x coordinate 133.9810
     high-symmetry point: -2.1074 0.0000 0.6695   x coordinate 140.0710
     high-symmetry point:  3.1612 4.2586 0.4463   x coordinate 140.0710
     high-symmetry point: -2.1074 1.2167 0.7253   x coordinate 146.1610
     high-symmetry point:  4.2149-2.4335 0.2232   x coordinate 146.1610
     high-symmetry point: -1.0537-5.4753 0.5021   x coordinate 152.2511
     high-symmetry point:  4.2149-1.2167 0.2789   x coordinate 152.2511
     high-symmetry point: -1.0537-4.2586 0.5579   x coordinate 158.3411
     high-symmetry point:  4.2149-0.0000 0.3347   x coordinate 158.3411
     high-symmetry point: -1.0537-3.0418 0.6137   x coordinate 164.4312
     high-symmetry point:  4.2149 1.2167 0.3905   x coordinate 164.4312
     high-symmetry point: -1.0537-1.8251 0.6695   x coordinate 170.5212
     high-symmetry point:  4.2149 2.4335 0.4463   x coordinate 170.5212
     high-symmetry point: -1.0537-0.6084 0.7253   x coordinate 176.6113
     high-symmetry point:  4.2149 3.6502 0.5021   x coordinate 176.6113
     high-symmetry point: -1.0537 0.6084 0.7810   x coordinate 182.7013
     high-symmetry point:  5.2686-3.0418 0.2789   x coordinate 182.7013
     high-symmetry point:  0.0000-6.0837 0.5579   x coordinate 188.7913
     high-symmetry point:  5.2686-1.8251 0.3347   x coordinate 188.7913
     high-symmetry point:  0.0000-4.8669 0.6137   x coordinate 194.8814
     high-symmetry point:  5.2686-0.6084 0.3905   x coordinate 194.8814
     high-symmetry point:  0.0000-3.6502 0.6695   x coordinate 200.9714
     high-symmetry point:  5.2686 0.6084 0.4463   x coordinate 200.9714
     high-symmetry point:  0.0000-2.4335 0.7253   x coordinate 207.0615
     high-symmetry point:  5.2686 1.8251 0.5021   x coordinate 207.0615
     high-symmetry point:  0.0000-1.2167 0.7810   x coordinate 213.1515
     high-symmetry point:  5.2686 3.0418 0.5579   x coordinate 213.1515
     high-symmetry point:  0.0000 0.0000 0.8368   x coordinate 219.2416

     Plottable bands (eV) written to file MnBi2Te4.bandsx.out.gnu
     Bands written to file MnBi2Te4.bandsx.out

 **************************************************************************

                    xk=(   0.00000,   0.00000,   0.00000  )

     point group C_1 (1)    
     there are  1 classes
     the character table:

       E    
A      1.00

     the symmetry operations in each class and the name of the first element:

     E        1
                                                                 

     Band symmetry, C_1 (1)     point group:

     e(  1 -  1) =    -74.82472  eV     1   --> A              
     e(  2 -  2) =    -69.92056  eV     1   --> A              
     e(  3 -  3) =    -43.55863  eV     1   --> A              
     e(  4 -  5) =    -43.55673  eV     2   -->   2 A              
     e(  6 -  7) =    -38.74276  eV     2   -->   2 A              
     e(  8 -  8) =    -38.73898  eV     1   --> A              
     e(  9 - 10) =    -15.53519  eV     2   -->   2 A              
     e( 11 - 12) =    -15.53398  eV     2   -->   2 A              
     e( 13 - 14) =    -15.52939  eV     2   -->   2 A              
     e( 15 - 16) =    -15.52887  eV     2   -->   2 A              
     e( 17 - 17) =    -15.52319  eV     1   --> A              
     e( 18 - 18) =    -15.52196  eV     1   --> A              
     e( 19 - 20) =    -15.51843  eV     2   -->   2 A              
     e( 21 - 21) =    -15.51807  eV     1   --> A              
     e( 22 - 22) =    -15.51746  eV     1   --> A              
     e( 23 - 24) =    -15.51723  eV     2   -->   2 A              
     e( 25 - 26) =    -15.51275  eV     2   -->   2 A              
     e( 27 - 28) =    -15.51223  eV     2   -->   2 A              
     e( 29 - 29) =     -5.56521  eV     1   --> A              
     e( 30 - 30) =     -5.53427  eV     1   --> A              
     e( 31 - 31) =     -5.37320  eV     1   --> A              
     e( 32 - 32) =     -5.32578  eV     1   --> A              
     e( 33 - 33) =     -3.82613  eV     1   --> A              
     e( 34 - 34) =     -3.62226  eV     1   --> A              
     e( 35 - 35) =     -3.34111  eV     1   --> A              
     e( 36 - 36) =     -3.06677  eV     1   --> A              
     e( 37 - 37) =     -1.55600  eV     1   --> A              
     e( 38 - 38) =     -1.20580  eV     1   --> A              
     e( 39 - 39) =     -0.86953  eV     1   --> A              
     e( 40 - 40) =     -0.58790  eV     1   --> A              
     e( 41 - 42) =      1.88896  eV     2   -->   2 A              
     e( 43 - 43) =      1.95062  eV     1   --> A              
     e( 44 - 45) =      2.15850  eV     2   -->   2 A              
     e( 46 - 46) =      4.14120  eV     1   --> A              
     e( 47 - 47) =      4.36996  eV     1   --> A              
     e( 48 - 48) =      5.12277  eV     1   --> A              
     e( 49 - 49) =      5.55258  eV     1   --> A              
     e( 50 - 51) =      5.93685  eV     2   -->   2 A              
     e( 52 - 53) =      5.98103  eV     2   -->   2 A              
     e( 54 - 55) =      6.10295  eV     2   -->   2 A              
     e( 56 - 57) =      6.18959  eV     2   -->   2 A              
     e( 58 - 58) =      6.24422  eV     1   --> A              
     e( 59 - 60) =      6.43571  eV     2   -->   2 A              
     e( 61 - 61) =      6.59990  eV     1   --> A              
     e( 62 - 63) =      6.93739  eV     2   -->   2 A              
     e( 64 - 65) =      7.03686  eV     2   -->   2 A              
     e( 66 - 67) =      7.24966  eV     2   -->   2 A              
     e( 68 - 68) =      7.51430  eV     1   --> A              
     e( 69 - 69) =      7.78714  eV     1   --> A              
     e( 70 - 70) =      8.33587  eV     1   --> A              
     e( 71 - 71) =      8.62072  eV     1   --> A              
     e( 72 - 73) =      8.83102  eV     2   -->   2 A              
     e( 74 - 75) =      8.89713  eV     2   -->   2 A              
     e( 76 - 76) =      9.01577  eV     1   --> A              
     e( 77 - 77) =      9.17225  eV     1   --> A              
     e( 78 - 79) =      9.29407  eV     2   -->   2 A              
     e( 80 - 81) =      9.33783  eV     2   -->   2 A              
     e( 82 - 83) =     10.11389  eV     2   -->   2 A              
     e( 84 - 84) =     10.15114  eV     1   --> A              
     e( 85 - 86) =     10.84975  eV     2   -->   2 A              
     e( 87 - 87) =     11.40224  eV     1   --> A              
     e( 88 - 88) =     11.62583  eV     1   --> A              
     e( 89 - 89) =     11.71029  eV     1   --> A              
     e( 90 - 90) =     12.56440  eV     1   --> A              
     e( 91 - 92) =     12.74284  eV     2   -->   2 A              
     e( 93 - 93) =     13.28943  eV     1   --> A              
     e( 94 - 95) =     13.30687  eV     2   -->   2 A              
     e( 96 - 96) =     13.35801  eV     1   --> A              
     e( 97 - 97) =     13.57547  eV     1   --> A              
     e( 98 - 99) =     13.73500  eV     2   -->   2 A              
     e(100 -100) =     13.84669  eV     1   --> A              
     e(101 -101) =     13.95296  eV     1   --> A              
     e(102 -103) =     14.17356  eV     2   -->   2 A              
     e(104 -105) =     14.23814  eV     2   -->   2 A              
     e(106 -106) =     14.65434  eV     1   --> A              
     e(107 -108) =     14.80133  eV     2   -->   2 A              
     e(109 -109) =     15.06990  eV     1   --> A              
     e(110 -110) =     15.20072  eV     1   --> A              
     e(111 -112) =     15.39830  eV     2   -->   2 A              
     e(113 -113) =     15.43420  eV     1   --> A              
     e(114 -115) =     15.58721  eV     2   -->   2 A              
     e(116 -116) =     15.84399  eV     1   --> A              
     e(117 -117) =     16.07349  eV     1   --> A              
     e(118 -119) =     16.34246  eV     2   -->   2 A              
     e(120 -121) =     16.41492  eV     2   -->   2 A              
     e(122 -123) =     16.56832  eV     2   -->   2 A              
     e(124 -124) =     16.66131  eV     1   --> A              
     e(125 -125) =     16.88700  eV     1   --> A              
     e(126 -127) =     16.91014  eV     2   -->   2 A              
     e(128 -128) =     17.76176  eV     1   --> A              
     e(129 -130) =     18.07847  eV     2   -->   2 A              
     e(131 -131) =     18.20759  eV     1   --> A              
     e(132 -132) =     18.26720  eV     1   --> A              
     e(133 -134) =     18.70359  eV     2   -->   2 A              
     e(135 -136) =     19.00907  eV     2   -->   2 A              
     e(137 -138) =     19.07471  eV     2   -->   2 A              
     e(139 -139) =     19.16896  eV     1   --> A              
     e(140 -140) =     19.27108  eV     1   --> A              
     e(141 -141) =     19.57347  eV     1   --> A              
     e(142 -142) =     20.15258  eV     1   --> A              
     e(143 -144) =     20.98718  eV     2   -->   2 A              
     e(145 -145) =     21.14062  eV     1   --> A              
     e(146 -147) =     21.19878  eV     2   -->   2 A              
     e(148 -149) =     21.27789  eV     2   -->   2 A              
     e(150 -150) =     21.32792  eV     1   --> A              
     e(151 -151) =     21.65004  eV     1   --> A              
     e(152 -153) =     21.70915  eV     2   -->   2 A              
     e(154 -154) =     21.87346  eV     1   --> A              
     e(155 -155) =     22.99103  eV     1   --> A              
     e(156 -157) =     23.63830  eV     2   -->   2 A              
     e(158 -159) =     23.87304  eV     2   -->   2 A              
     e(160 -160) =     24.01271  eV     1   --> A              
     e(161 -162) =     24.05811  eV     2   -->   2 A              
     e(163 -163) =     24.16092  eV     1   --> A              
     e(164 -165) =     25.02663  eV     2   -->   2 A              
     e(166 -166) =     25.62779  eV     1   --> A              
     e(167 -167) =     25.79828  eV     1   --> A              
     e(168 -168) =     26.18337  eV     1   --> A              
     e(169 -170) =     26.54117  eV     2   -->   2 A              
     e(171 -171) =     26.75654  eV     1   --> A              
     e(172 -172) =     27.24240  eV     1   --> A              
     e(173 -174) =     27.46078  eV     2   -->   2 A              
     e(175 -176) =     27.48719  eV     2   -->   2 A              
     e(177 -178) =     27.79628  eV     2   -->   2 A              
     e(179 -179) =     27.99551  eV     1   --> A              
     e(180 -180) =     28.46516  eV     1   --> A              
     e(181 -181) =     28.51529  eV     1   --> A              
     e(182 -182) =     28.59795  eV     1   --> A              
     e(183 -183) =     28.66016  eV     1   --> A              
     e(184 -184) =     29.05180  eV     1   --> A              
     e(185 -185) =     29.36624  eV     1   --> A              
     e(186 -187) =     29.47765  eV     2   -->   2 A              
     e(188 -188) =     29.55447  eV     1   --> A              
     e(189 -190) =     29.72369  eV     2   -->   2 A              
     e(191 -192) =     29.72976  eV     2   -->   2 A              
     e(193 -194) =     30.00642  eV     2   -->   2 A              
     e(195 -196) =     30.26639  eV     2   -->   2 A              
     e(197 -197) =     30.40467  eV     1   --> A              
     e(198 -198) =     30.49332  eV     1   --> A              
     e(199 -199) =     30.63082  eV     1   --> A              
     e(200 -200) =     30.78286  eV     1   --> A              

 **************************************************************************

 **************************************************************************

                    xk=(  -1.05372,  -0.60837,   0.05579  )

     Band symmetry, C_1 (1)     point group:

     e(  1 -  1) =    -74.82472  eV     1   --> A              
     e(  2 -  2) =    -69.92056  eV     1   --> A              
     e(  3 -  3) =    -43.55861  eV     1   --> A              
     e(  4 -  4) =    -43.55686  eV     1   --> A              
     e(  5 -  5) =    -43.55676  eV     1   --> A              
     e(  6 -  6) =    -38.74297  eV     1   --> A              
     e(  7 -  7) =    -38.74281  eV     1   --> A              
     e(  8 -  8) =    -38.73895  eV     1   --> A              
     e(  9 -  9) =    -15.53764  eV     1   --> A              
     e( 10 - 10) =    -15.53644  eV     1   --> A              
     e( 11 - 11) =    -15.53262  eV     1   --> A              
     e( 12 - 12) =    -15.53182  eV     1   --> A              
     e( 13 - 13) =    -15.53143  eV     1   --> A              
     e( 14 - 14) =    -15.53131  eV     1   --> A              
     e( 15 - 15) =    -15.52680  eV     1   --> A              
     e( 16 - 16) =    -15.52630  eV     1   --> A              
     e( 17 - 17) =    -15.52137  eV     1   --> A              
     e( 18 - 18) =    -15.52018  eV     1   --> A              
     e( 19 - 19) =    -15.51916  eV     1   --> A              
     e( 20 - 20) =    -15.51797  eV     1   --> A              
     e( 21 - 21) =    -15.51750  eV     1   --> A              
     e( 22 - 22) =    -15.51630  eV     1   --> A              
     e( 23 - 23) =    -15.51613  eV     1   --> A              
     e( 24 - 24) =    -15.51560  eV     1   --> A              
     e( 25 - 25) =    -15.51361  eV     1   --> A              
     e( 26 - 26) =    -15.51311  eV     1   --> A              
     e( 27 - 27) =    -15.51186  eV     1   --> A              
     e( 28 - 28) =    -15.51135  eV     1   --> A              
     e( 29 - 29) =     -5.32307  eV     1   --> A              
     e( 30 - 30) =     -5.29451  eV     1   --> A              
     e( 31 - 31) =     -5.13680  eV     1   --> A              
     e( 32 - 32) =     -5.09302  eV     1   --> A              
     e( 33 - 33) =     -3.65134  eV     1   --> A              
     e( 34 - 34) =     -3.46673  eV     1   --> A              
     e( 35 - 35) =     -3.21472  eV     1   --> A              
     e( 36 - 36) =     -2.97297  eV     1   --> A              
     e( 37 - 37) =     -1.62928  eV     1   --> A              
     e( 38 - 38) =     -1.38805  eV     1   --> A              
     e( 39 - 39) =     -1.08450  eV     1   --> A              
     e( 40 - 40) =     -0.91647  eV     1   --> A              
     e( 41 - 41) =      1.92826  eV     1   --> A              
     e( 42 - 42) =      1.93282  eV     1   --> A              
     e( 43 - 43) =      1.98520  eV     1   --> A              
     e( 44 - 44) =      2.14400  eV     1   --> A              
     e( 45 - 45) =      2.15108  eV     1   --> A              
     e( 46 - 46) =      3.94948  eV     1   --> A              
     e( 47 - 47) =      3.96002  eV     1   --> A              
     e( 48 - 48) =      4.35864  eV     1   --> A              
     e( 49 - 49) =      4.48943  eV     1   --> A              
     e( 50 - 50) =      4.88952  eV     1   --> A              
     e( 51 - 51) =      5.14245  eV     1   --> A              
     e( 52 - 52) =      5.22585  eV     1   --> A              
     e( 53 - 53) =      5.32714  eV     1   --> A              
     e( 54 - 54) =      5.42154  eV     1   --> A              
     e( 55 - 55) =      5.47883  eV     1   --> A              
     e( 56 - 56) =      5.66316  eV     1   --> A              
     e( 57 - 57) =      5.78346  eV     1   --> A              
     e( 58 - 58) =      5.93306  eV     1   --> A              
     e( 59 - 59) =      5.97672  eV     1   --> A              
     e( 60 - 60) =      6.35384  eV     1   --> A              
     e( 61 - 61) =      6.41917  eV     1   --> A              
     e( 62 - 62) =      6.59421  eV     1   --> A              
     e( 63 - 63) =      6.71369  eV     1   --> A              
     e( 64 - 64) =      6.84813  eV     1   --> A              
     e( 65 - 65) =      6.86518  eV     1   --> A              
     e( 66 - 66) =      6.90263  eV     1   --> A              
     e( 67 - 67) =      7.28428  eV     1   --> A              
     e( 68 - 68) =      7.31346  eV     1   --> A              
     e( 69 - 69) =      7.40666  eV     1   --> A              
     e( 70 - 70) =      8.66200  eV     1   --> A              
     e( 71 - 71) =      8.77297  eV     1   --> A              
     e( 72 - 72) =      9.08188  eV     1   --> A              
     e( 73 - 73) =      9.27172  eV     1   --> A              
     e( 74 - 74) =      9.29397  eV     1   --> A              
     e( 75 - 75) =      9.39437  eV     1   --> A              
     e( 76 - 76) =      9.46472  eV     1   --> A              
     e( 77 - 77) =      9.58786  eV     1   --> A              
     e( 78 - 78) =      9.77900  eV     1   --> A              
     e( 79 - 79) =      9.78497  eV     1   --> A              
     e( 80 - 80) =      9.91903  eV     1   --> A              
     e( 81 - 81) =     10.00030  eV     1   --> A              
     e( 82 - 82) =     10.26498  eV     1   --> A              
     e( 83 - 83) =     10.29018  eV     1   --> A              
     e( 84 - 84) =     10.46873  eV     1   --> A              
     e( 85 - 85) =     10.87242  eV     1   --> A              
     e( 86 - 86) =     11.02570  eV     1   --> A              
     e( 87 - 87) =     11.43407  eV     1   --> A              
     e( 88 - 88) =     11.93388  eV     1   --> A              
     e( 89 - 89) =     12.14277  eV     1   --> A              
     e( 90 - 90) =     12.38798  eV     1   --> A              
     e( 91 - 91) =     12.59494  eV     1   --> A              
     e( 92 - 92) =     12.91795  eV     1   --> A              
     e( 93 - 93) =     12.97031  eV     1   --> A              
     e( 94 - 94) =     13.08869  eV     1   --> A              
     e( 95 - 95) =     13.20187  eV     1   --> A              
     e( 96 - 96) =     13.33496  eV     1   --> A              
     e( 97 - 97) =     13.69768  eV     1   --> A              
     e( 98 - 98) =     13.77147  eV     1   --> A              
     e( 99 - 99) =     13.83161  eV     1   --> A              
     e(100 -100) =     14.03248  eV     1   --> A              
     e(101 -101) =     14.09566  eV     1   --> A              
     e(102 -102) =     14.23349  eV     1   --> A              
     e(103 -103) =     14.26309  eV     1   --> A              
     e(104 -104) =     14.42220  eV     1   --> A              
     e(105 -105) =     14.50295  eV     1   --> A              
     e(106 -106) =     14.67935  eV     1   --> A              
     e(107 -107) =     14.99671  eV     1   --> A              
     e(108 -108) =     15.07249  eV     1   --> A              
     e(109 -109) =     15.40948  eV     1   --> A              
     e(110 -110) =     15.52663  eV     1   --> A              
     e(111 -111) =     15.83194  eV     1   --> A              
     e(112 -112) =     15.87422  eV     1   --> A              
     e(113 -113) =     16.00729  eV     1   --> A              
     e(114 -114) =     16.01797  eV     1   --> A              
     e(115 -115) =     16.35345  eV     1   --> A              
     e(116 -116) =     16.55203  eV     1   --> A              
     e(117 -117) =     16.59100  eV     1   --> A              
     e(118 -118) =     16.76950  eV     1   --> A              
     e(119 -119) =     16.77534  eV     1   --> A              
     e(120 -120) =     17.10201  eV     1   --> A              
     e(121 -121) =     17.18023  eV     1   --> A              
     e(122 -122) =     17.36554  eV     1   --> A              
     e(123 -123) =     17.42718  eV     1   --> A              
     e(124 -124) =     17.43177  eV     1   --> A              
     e(125 -125) =     17.50495  eV     1   --> A              
     e(126 -126) =     17.69974  eV     1   --> A              
     e(127 -127) =     18.00909  eV     1   --> A              
     e(128 -128) =     18.05536  eV     1   --> A              
     e(129 -129) =     18.11006  eV     1   --> A              
     e(130 -130) =     18.36356  eV     1   --> A              
     e(131 -131) =     18.44975  eV     1   --> A              
     e(132 -132) =     18.54771  eV     1   --> A              
     e(133 -133) =     18.62812  eV     1   --> A              
     e(134 -134) =     19.13242  eV     1   --> A              
     e(135 -135) =     19.24576  eV     1   --> A              
     e(136 -136) =     19.40237  eV     1   --> A              
     e(137 -137) =     19.65158  eV     1   --> A              
     e(138 -138) =     19.75266  eV     1   --> A              
     e(139 -139) =     19.89429  eV     1   --> A              
     e(140 -140) =     20.13760  eV     1   --> A              
     e(141 -141) =     20.38140  eV     1   --> A              
     e(142 -142) =     20.67927  eV     1   --> A              
     e(143 -143) =     20.85487  eV     1   --> A              
     e(144 -144) =     20.89308  eV     1   --> A              
     e(145 -145) =     20.95617  eV     1   --> A              
     e(146 -146) =     21.15680  eV     1   --> A              
     e(147 -147) =     21.49196  eV     1   --> A              
     e(148 -148) =     21.70846  eV     1   --> A              
     e(149 -149) =     21.83737  eV     1   --> A              
     e(150 -150) =     22.06297  eV     1   --> A              
     e(151 -151) =     22.29271  eV     1   --> A              
     e(152 -152) =     22.77586  eV     1   --> A              
     e(153 -153) =     22.82322  eV     1   --> A              
     e(154 -154) =     23.01697  eV     1   --> A              
     e(155 -155) =     23.19330  eV     1   --> A              
     e(156 -156) =     23.31574  eV     1   --> A              
     e(157 -157) =     23.36894  eV     1   --> A              
     e(158 -158) =     23.76337  eV     1   --> A              
     e(159 -159) =     24.25847  eV     1   --> A              
     e(160 -160) =     24.38580  eV     1   --> A              
     e(161 -161) =     24.58292  eV     1   --> A              
     e(162 -162) =     24.76547  eV     1   --> A              
     e(163 -163) =     25.05822  eV     1   --> A              
     e(164 -164) =     25.32928  eV     1   --> A              
     e(165 -165) =     25.33442  eV     1   --> A              
     e(166 -166) =     25.58883  eV     1   --> A              
     e(167 -167) =     25.67400  eV     1   --> A              
     e(168 -168) =     25.78912  eV     1   --> A              
     e(169 -169) =     25.79514  eV     1   --> A              
     e(170 -170) =     25.83214  eV     1   --> A              
     e(171 -171) =     25.99803  eV     1   --> A              
     e(172 -172) =     26.00748  eV     1   --> A              
     e(173 -173) =     26.24031  eV     1   --> A              
     e(174 -174) =     26.31413  eV     1   --> A              
     e(175 -175) =     26.35520  eV     1   --> A              
     e(176 -176) =     26.38675  eV     1   --> A              
     e(177 -177) =     26.47741  eV     1   --> A              
     e(178 -178) =     26.62780  eV     1   --> A              
     e(179 -179) =     26.78201  eV     1   --> A              
     e(180 -180) =     26.94104  eV     1   --> A              
     e(181 -181) =     27.28695  eV     1   --> A              
     e(182 -182) =     27.31780  eV     1   --> A              
     e(183 -183) =     27.55178  eV     1   --> A              
     e(184 -184) =     27.63424  eV     1   --> A              
     e(185 -185) =     27.65126  eV     1   --> A              
     e(186 -186) =     27.94419  eV     1   --> A              
     e(187 -187) =     28.07271  eV     1   --> A              
     e(188 -188) =     28.14430  eV     1   --> A              
     e(189 -189) =     28.23368  eV     1   --> A              
     e(190 -190) =     28.27230  eV     1   --> A              
     e(191 -191) =     28.40007  eV     1   --> A              
     e(192 -192) =     28.57414  eV     1   --> A              
     e(193 -193) =     28.67467  eV     1   --> A              
     e(194 -194) =     28.93243  eV     1   --> A              
     e(195 -195) =     29.15371  eV     1   --> A              
     e(196 -196) =     29.15599  eV     1   --> A              
     e(197 -197) =     29.20701  eV     1   --> A              
     e(198 -198) =     29.46289  eV     1   --> A              
     e(199 -199) =     29.60313  eV     1   --> A              
     e(200 -200) =     29.67264  eV     1   --> A              

 **************************************************************************

 **************************************************************************

                    xk=(  -2.10744,  -1.21673,   0.11158  )

     Band symmetry, C_1 (1)     point group:

     e(  1 -  1) =    -74.82472  eV     1   --> A              
     e(  2 -  2) =    -69.92054  eV     1   --> A              
     e(  3 -  3) =    -43.55856  eV     1   --> A              
     e(  4 -  4) =    -43.55715  eV     1   --> A              
     e(  5 -  5) =    -43.55683  eV     1   --> A              
     e(  6 -  6) =    -38.74340  eV     1   --> A              
     e(  7 -  7) =    -38.74291  eV     1   --> A              
     e(  8 -  8) =    -38.73887  eV     1   --> A              
     e(  9 -  9) =    -15.54345  eV     1   --> A              
     e( 10 - 10) =    -15.54225  eV     1   --> A              
     e( 11 - 11) =    -15.53759  eV     1   --> A              
     e( 12 - 12) =    -15.53707  eV     1   --> A              
     e( 13 - 13) =    -15.52965  eV     1   --> A              
     e( 14 - 14) =    -15.52845  eV     1   --> A              
     e( 15 - 15) =    -15.52378  eV     1   --> A              
     e( 16 - 16) =    -15.52327  eV     1   --> A              
     e( 17 - 17) =    -15.52315  eV     1   --> A              
     e( 18 - 18) =    -15.52195  eV     1   --> A              
     e( 19 - 19) =    -15.51758  eV     1   --> A              
     e( 20 - 20) =    -15.51706  eV     1   --> A              
     e( 21 - 21) =    -15.51491  eV     1   --> A              
     e( 22 - 23) =    -15.51371  eV     2   -->   2 A              
     e( 24 - 24) =    -15.51245  eV     1   --> A              
     e( 25 - 25) =    -15.50972  eV     1   --> A              
     e( 26 - 26) =    -15.50920  eV     1   --> A              
     e( 27 - 27) =    -15.50809  eV     1   --> A              
     e( 28 - 28) =    -15.50759  eV     1   --> A              
     e( 29 - 29) =     -4.64133  eV     1   --> A              
     e( 30 - 30) =     -4.62316  eV     1   --> A              
     e( 31 - 31) =     -4.48116  eV     1   --> A              
     e( 32 - 32) =     -4.45416  eV     1   --> A              
     e( 33 - 33) =     -3.23995  eV     1   --> A              
     e( 34 - 34) =     -3.17181  eV     1   --> A              
     e( 35 - 35) =     -2.94664  eV     1   --> A              
     e( 36 - 36) =     -2.85819  eV     1   --> A              
     e( 37 - 37) =     -2.03286  eV     1   --> A              
     e( 38 - 38) =     -1.99879  eV     1   --> A              
     e( 39 - 39) =     -1.77806  eV     1   --> A              
     e( 40 - 40) =     -1.73729  eV     1   --> A              
     e( 41 - 41) =      1.90289  eV     1   --> A              
     e( 42 - 42) =      1.97259  eV     1   --> A              
     e( 43 - 43) =      2.06053  eV     1   --> A              
     e( 44 - 44) =      2.14845  eV     1   --> A              
     e( 45 - 45) =      2.19735  eV     1   --> A              
     e( 46 - 46) =      3.08391  eV     1   --> A              
     e( 47 - 47) =      3.17398  eV     1   --> A              
     e( 48 - 48) =      3.50542  eV     1   --> A              
     e( 49 - 49) =      3.68409  eV     1   --> A              
     e( 50 - 50) =      3.79729  eV     1   --> A              
     e( 51 - 51) =      3.98598  eV     1   --> A              
     e( 52 - 52) =      4.40529  eV     1   --> A              
     e( 53 - 53) =      4.78663  eV     1   --> A              
     e( 54 - 54) =      4.82672  eV     1   --> A              
     e( 55 - 55) =      4.96117  eV     1   --> A              
     e( 56 - 56) =      5.07690  eV     1   --> A              
     e( 57 - 57) =      5.16116  eV     1   --> A              
     e( 58 - 58) =      5.16246  eV     1   --> A              
     e( 59 - 59) =      5.21670  eV     1   --> A              
     e( 60 - 60) =      5.50947  eV     1   --> A              
     e( 61 - 61) =      6.02881  eV     1   --> A              
     e( 62 - 62) =      6.10092  eV     1   --> A              
     e( 63 - 63) =      6.10600  eV     1   --> A              
     e( 64 - 64) =      6.22659  eV     1   --> A              
     e( 65 - 65) =      6.26266  eV     1   --> A              
     e( 66 - 66) =      6.57176  eV     1   --> A              
     e( 67 - 67) =      6.97754  eV     1   --> A              
     e( 68 - 68) =      7.00260  eV     1   --> A              
     e( 69 - 69) =      7.19080  eV     1   --> A              
     e( 70 - 70) =      8.63492  eV     1   --> A              
     e( 71 - 71) =      8.98578  eV     1   --> A              
     e( 72 - 72) =      9.17009  eV     1   --> A              
     e( 73 - 73) =      9.35133  eV     1   --> A              
     e( 74 - 74) =      9.38101  eV     1   --> A              
     e( 75 - 75) =      9.39159  eV     1   --> A              
     e( 76 - 76) =      9.58299  eV     1   --> A              
     e( 77 - 77) =      9.71684  eV     1   --> A              
     e( 78 - 78) =      9.89754  eV     1   --> A              
     e( 79 - 79) =     10.06073  eV     1   --> A              
     e( 80 - 80) =     10.23173  eV     1   --> A              
     e( 81 - 81) =     10.29472  eV     1   --> A              
     e( 82 - 82) =     10.51264  eV     1   --> A              
     e( 83 - 83) =     10.60644  eV     1   --> A              
     e( 84 - 84) =     10.70857  eV     1   --> A              
     e( 85 - 85) =     11.10957  eV     1   --> A              
     e( 86 - 86) =     11.28065  eV     1   --> A              
     e( 87 - 87) =     11.55397  eV     1   --> A              
     e( 88 - 88) =     11.63904  eV     1   --> A              
     e( 89 - 89) =     12.04744  eV     1   --> A              
     e( 90 - 90) =     12.17367  eV     1   --> A              
     e( 91 - 91) =     12.39001  eV     1   --> A              
     e( 92 - 92) =     13.06674  eV     1   --> A              
     e( 93 - 93) =     13.52565  eV     1   --> A              
     e( 94 - 94) =     13.81950  eV     1   --> A              
     e( 95 - 95) =     13.96378  eV     1   --> A              
     e( 96 - 96) =     14.20090  eV     1   --> A              
     e( 97 - 97) =     14.32632  eV     1   --> A              
     e( 98 - 98) =     14.46279  eV     1   --> A              
     e( 99 - 99) =     14.55233  eV     1   --> A              
     e(100 -100) =     14.90737  eV     1   --> A              
     e(101 -101) =     15.05725  eV     1   --> A              
     e(102 -102) =     15.16401  eV     1   --> A              
     e(103 -103) =     15.46956  eV     1   --> A              
     e(104 -104) =     15.53550  eV     1   --> A              
     e(105 -105) =     15.60142  eV     1   --> A              
     e(106 -106) =     15.60777  eV     1   --> A              
     e(107 -107) =     15.70389  eV     1   --> A              
     e(108 -108) =     16.18190  eV     1   --> A              
     e(109 -109) =     16.24331  eV     1   --> A              
     e(110 -110) =     16.36494  eV     1   --> A              
     e(111 -111) =     16.51241  eV     1   --> A              
     e(112 -112) =     16.59835  eV     1   --> A              
     e(113 -113) =     16.75514  eV     1   --> A              
     e(114 -114) =     16.91708  eV     1   --> A              
     e(115 -115) =     16.98266  eV     1   --> A              
     e(116 -116) =     17.57691  eV     1   --> A              
     e(117 -117) =     17.58697  eV     1   --> A              
     e(118 -118) =     17.72417  eV     1   --> A              
     e(119 -119) =     17.72541  eV     1   --> A              
     e(120 -120) =     18.08020  eV     1   --> A              
     e(121 -121) =     18.17772  eV     1   --> A              
     e(122 -122) =     18.50485  eV     1   --> A              
     e(123 -123) =     18.72378  eV     1   --> A              
     e(124 -124) =     18.76126  eV     1   --> A              
     e(125 -125) =     19.04840  eV     1   --> A              
     e(126 -126) =     19.22905  eV     1   --> A              
     e(127 -127) =     19.23532  eV     1   --> A              
     e(128 -128) =     19.33999  eV     1   --> A              
     e(129 -129) =     19.54416  eV     1   --> A              
     e(130 -130) =     19.77509  eV     1   --> A              
     e(131 -131) =     20.20662  eV     1   --> A              
     e(132 -132) =     20.36581  eV     1   --> A              
     e(133 -133) =     20.39883  eV     1   --> A              
     e(134 -134) =     20.48334  eV     1   --> A              
     e(135 -135) =     20.61240  eV     1   --> A              
     e(136 -136) =     20.68132  eV     1   --> A              
     e(137 -137) =     20.76579  eV     1   --> A              
     e(138 -138) =     20.98871  eV     1   --> A              
     e(139 -139) =     21.31443  eV     1   --> A              
     e(140 -140) =     21.36304  eV     1   --> A              
     e(141 -141) =     21.49358  eV     1   --> A              
     e(142 -142) =     21.59433  eV     1   --> A              
     e(143 -143) =     21.64033  eV     1   --> A              
     e(144 -144) =     21.83551  eV     1   --> A              
     e(145 -145) =     21.84423  eV     1   --> A              
     e(146 -146) =     21.87814  eV     1   --> A              
     e(147 -147) =     22.11723  eV     1   --> A              
     e(148 -148) =     22.12999  eV     1   --> A              
     e(149 -149) =     22.20199  eV     1   --> A              
     e(150 -150) =     22.21952  eV     1   --> A              
     e(151 -151) =     22.37933  eV     1   --> A              
     e(152 -152) =     22.46048  eV     1   --> A              
     e(153 -153) =     22.60147  eV     1   --> A              
     e(154 -154) =     22.63842  eV     1   --> A              
     e(155 -155) =     22.77130  eV     1   --> A              
     e(156 -156) =     22.87793  eV     1   --> A              
     e(157 -157) =     22.94799  eV     1   --> A              
     e(158 -158) =     23.02645  eV     1   --> A              
     e(159 -159) =     23.14802  eV     1   --> A              
     e(160 -160) =     23.25284  eV     1   --> A              
     e(161 -161) =     23.27958  eV     1   --> A              
     e(162 -162) =     23.45533  eV     1   --> A              
     e(163 -163) =     23.51029  eV     1   --> A              
     e(164 -164) =     23.64038  eV     1   --> A              
     e(165 -165) =     23.67213  eV     1   --> A              
     e(166 -166) =     23.90407  eV     1   --> A              
     e(167 -167) =     24.13924  eV     1   --> A              
     e(168 -168) =     24.22131  eV     1   --> A              
     e(169 -169) =     24.44978  eV     1   --> A              
     e(170 -170) =     24.49804  eV     1   --> A              
     e(171 -171) =     24.49862  eV     1   --> A              
     e(172 -172) =     24.92264  eV     1   --> A              
     e(173 -173) =     25.01346  eV     1   --> A              
     e(174 -174) =     25.37359  eV     1   --> A              
     e(175 -175) =     25.48889  eV     1   --> A              
     e(176 -176) =     25.53617  eV     1   --> A              
     e(177 -177) =     25.56323  eV     1   --> A              
     e(178 -178) =     25.90370  eV     1   --> A              
     e(179 -179) =     25.97755  eV     1   --> A              
     e(180 -180) =     26.11705  eV     1   --> A              
     e(181 -181) =     26.28306  eV     1   --> A              
     e(182 -182) =     26.33207  eV     1   --> A              
     e(183 -183) =     26.40979  eV     1   --> A              
     e(184 -184) =     26.86137  eV     1   --> A              
     e(185 -185) =     27.02817  eV     1   --> A              
     e(186 -186) =     27.13755  eV     1   --> A              
     e(187 -187) =     27.20942  eV     1   --> A              
     e(188 -188) =     27.21352  eV     1   --> A              
     e(189 -189) =     27.32428  eV     1   --> A              
     e(190 -190) =     27.46459  eV     1   --> A              
     e(191 -191) =     27.75526  eV     1   --> A              
     e(192 -192) =     27.88543  eV     1   --> A              
     e(193 -193) =     27.88735  eV     1   --> A              
     e(194 -194) =     28.04017  eV     1   --> A              
     e(195 -195) =     28.55836  eV     1   --> A              
     e(196 -196) =     28.62290  eV     1   --> A              
     e(197 -197) =     28.74208  eV     1   --> A              
     e(198 -198) =     28.87987  eV     1   --> A              
     e(199 -199) =     28.89718  eV     1   --> A              
     e(200 -200) =     28.91940  eV     1   --> A              

 **************************************************************************

 **************************************************************************

                    xk=(  -3.16116,  -1.82510,   0.16737  )

     Band symmetry, C_1 (1)     point group:

     e(  1 -  1) =    -74.82472  eV     1   --> A              
     e(  2 -  2) =    -69.92054  eV     1   --> A              
     e(  3 -  3) =    -43.55854  eV     1   --> A              
     e(  4 -  4) =    -43.55729  eV     1   --> A              
     e(  5 -  5) =    -43.55686  eV     1   --> A              
     e(  6 -  6) =    -38.74362  eV     1   --> A              
     e(  7 -  7) =    -38.74296  eV     1   --> A              
     e(  8 -  8) =    -38.73884  eV     1   --> A              
     e(  9 -  9) =    -15.54652  eV     1   --> A              
     e( 10 - 10) =    -15.54532  eV     1   --> A              
     e( 11 - 11) =    -15.54063  eV     1   --> A              
     e( 12 - 12) =    -15.54012  eV     1   --> A              
     e( 13 - 13) =    -15.52907  eV     1   --> A              
     e( 14 - 14) =    -15.52788  eV     1   --> A              
     e( 15 - 15) =    -15.52437  eV     1   --> A              
     e( 16 - 17) =    -15.52319  eV     2   -->   2 A              
     e( 18 - 18) =    -15.52269  eV     1   --> A              
     e( 19 - 19) =    -15.51878  eV     1   --> A              
     e( 20 - 20) =    -15.51827  eV     1   --> A              
     e( 21 - 21) =    -15.51232  eV     1   --> A              
     e( 22 - 22) =    -15.51113  eV     1   --> A              
     e( 23 - 23) =    -15.51080  eV     1   --> A              
     e( 24 - 24) =    -15.50960  eV     1   --> A              
     e( 25 - 25) =    -15.50716  eV     1   --> A              
     e( 26 - 26) =    -15.50664  eV     1   --> A              
     e( 27 - 27) =    -15.50526  eV     1   --> A              
     e( 28 - 28) =    -15.50476  eV     1   --> A              
     e( 29 - 29) =     -3.92043  eV     1   --> A              
     e( 30 - 30) =     -3.91473  eV     1   --> A              
     e( 31 - 31) =     -3.89290  eV     1   --> A              
     e( 32 - 32) =     -3.88262  eV     1   --> A              
     e( 33 - 33) =     -3.19951  eV     1   --> A              
     e( 34 - 34) =     -3.18814  eV     1   --> A              
     e( 35 - 35) =     -3.08774  eV     1   --> A              
     e( 36 - 36) =     -3.01795  eV     1   --> A              
     e( 37 - 37) =     -2.45341  eV     1   --> A              
     e( 38 - 38) =     -2.41039  eV     1   --> A              
     e( 39 - 39) =     -2.25200  eV     1   --> A              
     e( 40 - 40) =     -2.22005  eV     1   --> A              
     e( 41 - 41) =      1.81224  eV     1   --> A              
     e( 42 - 42) =      1.96499  eV     1   --> A              
     e( 43 - 43) =      2.02146  eV     1   --> A              
     e( 44 - 44) =      2.25679  eV     1   --> A              
     e( 45 - 45) =      2.33010  eV     1   --> A              
     e( 46 - 46) =      2.65506  eV     1   --> A              
     e( 47 - 47) =      2.76795  eV     1   --> A              
     e( 48 - 48) =      3.03955  eV     1   --> A              
     e( 49 - 49) =      3.20719  eV     1   --> A              
     e( 50 - 50) =      3.76940  eV     1   --> A              
     e( 51 - 51) =      3.82778  eV     1   --> A              
     e( 52 - 52) =      4.33958  eV     1   --> A              
     e( 53 - 53) =      4.36075  eV     1   --> A              
     e( 54 - 54) =      4.53994  eV     1   --> A              
     e( 55 - 55) =      4.57623  eV     1   --> A              
     e( 56 - 56) =      4.78515  eV     1   --> A              
     e( 57 - 57) =      4.84538  eV     1   --> A              
     e( 58 - 58) =      4.91483  eV     1   --> A              
     e( 59 - 59) =      4.94484  eV     1   --> A              
     e( 60 - 60) =      5.35607  eV     1   --> A              
     e( 61 - 61) =      5.36885  eV     1   --> A              
     e( 62 - 62) =      5.93143  eV     1   --> A              
     e( 63 - 63) =      5.97608  eV     1   --> A              
     e( 64 - 64) =      6.05245  eV     1   --> A              
     e( 65 - 65) =      6.26129  eV     1   --> A              
     e( 66 - 66) =      6.42934  eV     1   --> A              
     e( 67 - 67) =      6.71319  eV     1   --> A              
     e( 68 - 68) =      6.96604  eV     1   --> A              
     e( 69 - 69) =      7.11012  eV     1   --> A              
     e( 70 - 70) =      8.38304  eV     1   --> A              
     e( 71 - 71) =      8.59160  eV     1   --> A              
     e( 72 - 72) =      9.25546  eV     1   --> A              
     e( 73 - 73) =      9.27407  eV     1   --> A              
     e( 74 - 74) =      9.36184  eV     1   --> A              
     e( 75 - 75) =      9.39433  eV     1   --> A              
     e( 76 - 76) =      9.58005  eV     1   --> A              
     e( 77 - 77) =      9.62441  eV     1   --> A              
     e( 78 - 78) =      9.64335  eV     1   --> A              
     e( 79 - 79) =      9.93662  eV     1   --> A              
     e( 80 - 80) =     10.26473  eV     1   --> A              
     e( 81 - 81) =     10.49703  eV     1   --> A              
     e( 82 - 82) =     10.52963  eV     1   --> A              
     e( 83 - 83) =     10.59536  eV     1   --> A              
     e( 84 - 84) =     10.60232  eV     1   --> A              
     e( 85 - 85) =     11.25874  eV     1   --> A              
     e( 86 - 86) =     11.28109  eV     1   --> A              
     e( 87 - 87) =     11.45047  eV     1   --> A              
     e( 88 - 88) =     11.63102  eV     1   --> A              
     e( 89 - 89) =     11.64892  eV     1   --> A              
     e( 90 - 90) =     12.05664  eV     1   --> A              
     e( 91 - 91) =     12.47728  eV     1   --> A              
     e( 92 - 92) =     13.14074  eV     1   --> A              
     e( 93 - 93) =     13.57999  eV     1   --> A              
     e( 94 - 94) =     13.78039  eV     1   --> A              
     e( 95 - 95) =     14.28914  eV     1   --> A              
     e( 96 - 96) =     14.43500  eV     1   --> A              
     e( 97 - 97) =     14.66892  eV     1   --> A              
     e( 98 - 98) =     14.81856  eV     1   --> A              
     e( 99 - 99) =     15.57670  eV     1   --> A              
     e(100 -100) =     15.72962  eV     1   --> A              
     e(101 -101) =     16.07838  eV     1   --> A              
     e(102 -102) =     16.24295  eV     1   --> A              
     e(103 -103) =     16.62571  eV     1   --> A              
     e(104 -104) =     16.65399  eV     1   --> A              
     e(105 -105) =     16.85933  eV     1   --> A              
     e(106 -106) =     16.85987  eV     1   --> A              
     e(107 -107) =     16.95249  eV     1   --> A              
     e(108 -108) =     16.95476  eV     1   --> A              
     e(109 -109) =     17.57018  eV     1   --> A              
     e(110 -110) =     17.65438  eV     1   --> A              
     e(111 -111) =     17.92918  eV     1   --> A              
     e(112 -112) =     17.93816  eV     1   --> A              
     e(113 -113) =     17.96913  eV     1   --> A              
     e(114 -114) =     18.00840  eV     1   --> A              
     e(115 -115) =     18.08812  eV     1   --> A              
     e(116 -116) =     18.16171  eV     1   --> A              
     e(117 -117) =     18.20425  eV     1   --> A              
     e(118 -118) =     18.20788  eV     1   --> A              
     e(119 -119) =     18.29972  eV     1   --> A              
     e(120 -120) =     18.38071  eV     1   --> A              
     e(121 -121) =     18.66201  eV     1   --> A              
     e(122 -122) =     18.71289  eV     1   --> A              
     e(123 -123) =     19.10967  eV     1   --> A              
     e(124 -124) =     19.15517  eV     1   --> A              
     e(125 -125) =     19.45877  eV     1   --> A              
     e(126 -126) =     19.52902  eV     1   --> A              
     e(127 -127) =     19.57741  eV     1   --> A              
     e(128 -128) =     19.63617  eV     1   --> A              
     e(129 -129) =     19.64676  eV     1   --> A              
     e(130 -130) =     19.71166  eV     1   --> A              
     e(131 -131) =     19.74048  eV     1   --> A              
     e(132 -132) =     19.76518  eV     1   --> A              
     e(133 -133) =     20.06849  eV     1   --> A              
     e(134 -134) =     20.17621  eV     1   --> A              
     e(135 -135) =     20.41095  eV     1   --> A              
     e(136 -136) =     20.42636  eV     1   --> A              
     e(137 -137) =     20.46010  eV     1   --> A              
     e(138 -138) =     20.55204  eV     1   --> A              
     e(139 -139) =     20.58446  eV     1   --> A              
     e(140 -140) =     20.60149  eV     1   --> A              
     e(141 -141) =     21.09448  eV     1   --> A              
     e(142 -142) =     21.21159  eV     1   --> A              
     e(143 -143) =     21.56367  eV     1   --> A              
     e(144 -144) =     21.56463  eV     1   --> A              
     e(145 -145) =     21.58032  eV     1   --> A              
     e(146 -146) =     21.59608  eV     1   --> A              
     e(147 -147) =     22.14545  eV     1   --> A              
     e(148 -148) =     22.20357  eV     1   --> A              
     e(149 -149) =     22.35101  eV     1   --> A              
     e(150 -150) =     22.55668  eV     1   --> A              
     e(151 -151) =     22.58576  eV     1   --> A              
     e(152 -152) =     22.68050  eV     1   --> A              
     e(153 -153) =     22.77369  eV     1   --> A              
     e(154 -154) =     22.77463  eV     1   --> A              
     e(155 -155) =     22.95770  eV     1   --> A              
     e(156 -156) =     22.96410  eV     1   --> A              
     e(157 -157) =     23.13458  eV     1   --> A              
     e(158 -158) =     23.16623  eV     1   --> A              
     e(159 -159) =     23.53046  eV     1   --> A              
     e(160 -160) =     23.61957  eV     1   --> A              
     e(161 -161) =     23.72223  eV     1   --> A              
     e(162 -162) =     23.76424  eV     1   --> A              
     e(163 -163) =     23.85327  eV     1   --> A              
     e(164 -164) =     23.93203  eV     1   --> A              
     e(165 -165) =     24.35925  eV     1   --> A              
     e(166 -166) =     24.36954  eV     1   --> A              
     e(167 -167) =     24.37757  eV     1   --> A              
     e(168 -168) =     24.43153  eV     1   --> A              
     e(169 -169) =     24.53433  eV     1   --> A              
     e(170 -170) =     24.54929  eV     1   --> A              
     e(171 -171) =     24.77435  eV     1   --> A              
     e(172 -172) =     24.87054  eV     1   --> A              
     e(173 -173) =     25.03936  eV     1   --> A              
     e(174 -174) =     25.10541  eV     1   --> A              
     e(175 -175) =     25.11744  eV     1   --> A              
     e(176 -176) =     25.13342  eV     1   --> A              
     e(177 -177) =     25.45778  eV     1   --> A              
     e(178 -178) =     25.53724  eV     1   --> A              
     e(179 -179) =     25.73502  eV     1   --> A              
     e(180 -180) =     25.75686  eV     1   --> A              
     e(181 -181) =     26.14525  eV     1   --> A              
     e(182 -182) =     26.14983  eV     1   --> A              
     e(183 -183) =     26.16303  eV     1   --> A              
     e(184 -184) =     26.33223  eV     1   --> A              
     e(185 -185) =     26.38056  eV     1   --> A              
     e(186 -186) =     26.39800  eV     1   --> A              
     e(187 -187) =     26.49776  eV     1   --> A              
     e(188 -188) =     26.51792  eV     1   --> A              
     e(189 -189) =     26.66858  eV     1   --> A              
     e(190 -190) =     26.69494  eV     1   --> A              
     e(191 -191) =     26.75754  eV     1   --> A              
     e(192 -192) =     26.82797  eV     1   --> A              
     e(193 -193) =     27.01270  eV     1   --> A              
     e(194 -194) =     27.02460  eV     1   --> A              
     e(195 -195) =     27.64752  eV     1   --> A              
     e(196 -196) =     27.65222  eV     1   --> A              
     e(197 -197) =     27.75701  eV     1   --> A              
     e(198 -198) =     27.81753  eV     1   --> A              
     e(199 -199) =     28.06643  eV     1   --> A              
     e(200 -200) =     28.11155  eV     1   --> A              

 **************************************************************************

 **************************************************************************

                    xk=(  -4.21488,  -2.43346,   0.22315  )

     Band symmetry, C_1 (1)     point group:

     e(  1 -  1) =    -74.82472  eV     1   --> A              
     e(  2 -  2) =    -69.92054  eV     1   --> A              
     e(  3 -  3) =    -43.55856  eV     1   --> A              
     e(  4 -  4) =    -43.55715  eV     1   --> A              
     e(  5 -  5) =    -43.55683  eV     1   --> A              
     e(  6 -  6) =    -38.74340  eV     1   --> A              
     e(  7 -  7) =    -38.74291  eV     1   --> A              
     e(  8 -  8) =    -38.73887  eV     1   --> A              
     e(  9 -  9) =    -15.54345  eV     1   --> A              
     e( 10 - 10) =    -15.54225  eV     1   --> A              
     e( 11 - 11) =    -15.53759  eV     1   --> A              
     e( 12 - 12) =    -15.53707  eV     1   --> A              
     e( 13 - 13) =    -15.52965  eV     1   --> A              
     e( 14 - 14) =    -15.52845  eV     1   --> A              
     e( 15 - 15) =    -15.52378  eV     1   --> A              
     e( 16 - 16) =    -15.52327  eV     1   --> A              
     e( 17 - 17) =    -15.52315  eV     1   --> A              
     e( 18 - 18) =    -15.52195  eV     1   --> A              
     e( 19 - 19) =    -15.51758  eV     1   --> A              
     e( 20 - 20) =    -15.51706  eV     1   --> A              
     e( 21 - 21) =    -15.51491  eV     1   --> A              
     e( 22 - 23) =    -15.51371  eV     2   -->   2 A              
     e( 24 - 24) =    -15.51245  eV     1   --> A              
     e( 25 - 25) =    -15.50972  eV     1   --> A              
     e( 26 - 26) =    -15.50920  eV     1   --> A              
     e( 27 - 27) =    -15.50809  eV     1   --> A              
     e( 28 - 28) =    -15.50759  eV     1   --> A              
     e( 29 - 29) =     -4.64133  eV     1   --> A              
     e( 30 - 30) =     -4.62316  eV     1   --> A              
     e( 31 - 31) =     -4.48116  eV     1   --> A              
     e( 32 - 32) =     -4.45416  eV     1   --> A              
     e( 33 - 33) =     -3.23995  eV     1   --> A              
     e( 34 - 34) =     -3.17181  eV     1   --> A              
     e( 35 - 35) =     -2.94664  eV     1   --> A              
     e( 36 - 36) =     -2.85819  eV     1   --> A              
     e( 37 - 37) =     -2.03286  eV     1   --> A              
     e( 38 - 38) =     -1.99879  eV     1   --> A              
     e( 39 - 39) =     -1.77806  eV     1   --> A              
     e( 40 - 40) =     -1.73729  eV     1   --> A              
     e( 41 - 41) =      1.90289  eV     1   --> A              
     e( 42 - 42) =      1.97259  eV     1   --> A              
     e( 43 - 43) =      2.06053  eV     1   --> A              
     e( 44 - 44) =      2.14845  eV     1   --> A              
     e( 45 - 45) =      2.19735  eV     1   --> A              
     e( 46 - 46) =      3.08391  eV     1   --> A              
     e( 47 - 47) =      3.17398  eV     1   --> A              
     e( 48 - 48) =      3.50542  eV     1   --> A              
     e( 49 - 49) =      3.68409  eV     1   --> A              
     e( 50 - 50) =      3.79729  eV     1   --> A              
     e( 51 - 51) =      3.98598  eV     1   --> A              
     e( 52 - 52) =      4.40529  eV     1   --> A              
     e( 53 - 53) =      4.78663  eV     1   --> A              
     e( 54 - 54) =      4.82672  eV     1   --> A              
     e( 55 - 55) =      4.96117  eV     1   --> A              
     e( 56 - 56) =      5.07690  eV     1   --> A              
     e( 57 - 57) =      5.16116  eV     1   --> A              
     e( 58 - 58) =      5.16246  eV     1   --> A              
     e( 59 - 59) =      5.21670  eV     1   --> A              
     e( 60 - 60) =      5.50947  eV     1   --> A              
     e( 61 - 61) =      6.02881  eV     1   --> A              
     e( 62 - 62) =      6.10092  eV     1   --> A              
     e( 63 - 63) =      6.10600  eV     1   --> A              
     e( 64 - 64) =      6.22659  eV     1   --> A              
     e( 65 - 65) =      6.26266  eV     1   --> A              
     e( 66 - 66) =      6.57176  eV     1   --> A              
     e( 67 - 67) =      6.97754  eV     1   --> A              
     e( 68 - 68) =      7.00260  eV     1   --> A              
     e( 69 - 69) =      7.19080  eV     1   --> A              
     e( 70 - 70) =      8.63492  eV     1   --> A              
     e( 71 - 71) =      8.98578  eV     1   --> A              
     e( 72 - 72) =      9.17009  eV     1   --> A              
     e( 73 - 73) =      9.35133  eV     1   --> A              
     e( 74 - 74) =      9.38101  eV     1   --> A              
     e( 75 - 75) =      9.39159  eV     1   --> A              
     e( 76 - 76) =      9.58299  eV     1   --> A              
     e( 77 - 77) =      9.71684  eV     1   --> A              
     e( 78 - 78) =      9.89754  eV     1   --> A              
     e( 79 - 79) =     10.06073  eV     1   --> A              
     e( 80 - 80) =     10.23173  eV     1   --> A              
     e( 81 - 81) =     10.29472  eV     1   --> A              
     e( 82 - 82) =     10.51264  eV     1   --> A              
     e( 83 - 83) =     10.60644  eV     1   --> A              
     e( 84 - 84) =     10.70857  eV     1   --> A              
     e( 85 - 85) =     11.10957  eV     1   --> A              
     e( 86 - 86) =     11.28065  eV     1   --> A              
     e( 87 - 87) =     11.55397  eV     1   --> A              
     e( 88 - 88) =     11.63904  eV     1   --> A              
     e( 89 - 89) =     12.04744  eV     1   --> A              
     e( 90 - 90) =     12.17367  eV     1   --> A              
     e( 91 - 91) =     12.39001  eV     1   --> A              
     e( 92 - 92) =     13.06674  eV     1   --> A              
     e( 93 - 93) =     13.52565  eV     1   --> A              
     e( 94 - 94) =     13.81950  eV     1   --> A              
     e( 95 - 95) =     13.96378  eV     1   --> A              
     e( 96 - 96) =     14.20090  eV     1   --> A              
     e( 97 - 97) =     14.32632  eV     1   --> A              
     e( 98 - 98) =     14.46279  eV     1   --> A              
     e( 99 - 99) =     14.55233  eV     1   --> A              
     e(100 -100) =     14.90737  eV     1   --> A              
     e(101 -101) =     15.05725  eV     1   --> A              
     e(102 -102) =     15.16401  eV     1   --> A              
     e(103 -103) =     15.46956  eV     1   --> A              
     e(104 -104) =     15.53550  eV     1   --> A              
     e(105 -105) =     15.60142  eV     1   --> A              
     e(106 -106) =     15.60777  eV     1   --> A              
     e(107 -107) =     15.70389  eV     1   --> A              
     e(108 -108) =     16.18190  eV     1   --> A              
     e(109 -109) =     16.24331  eV     1   --> A              
     e(110 -110) =     16.36494  eV     1   --> A              
     e(111 -111) =     16.51241  eV     1   --> A              
     e(112 -112) =     16.59835  eV     1   --> A              
     e(113 -113) =     16.75514  eV     1   --> A              
     e(114 -114) =     16.91708  eV     1   --> A              
     e(115 -115) =     16.98266  eV     1   --> A              
     e(116 -116) =     17.57691  eV     1   --> A              
     e(117 -117) =     17.58697  eV     1   --> A              
     e(118 -118) =     17.72417  eV     1   --> A              
     e(119 -119) =     17.72541  eV     1   --> A              
     e(120 -120) =     18.08020  eV     1   --> A              
     e(121 -121) =     18.17772  eV     1   --> A              
     e(122 -122) =     18.50485  eV     1   --> A              
     e(123 -123) =     18.72378  eV     1   --> A              
     e(124 -124) =     18.76126  eV     1   --> A              
     e(125 -125) =     19.04840  eV     1   --> A              
     e(126 -126) =     19.22905  eV     1   --> A              
     e(127 -127) =     19.23532  eV     1   --> A              
     e(128 -128) =     19.33999  eV     1   --> A              
     e(129 -129) =     19.54416  eV     1   --> A              
     e(130 -130) =     19.77509  eV     1   --> A              
     e(131 -131) =     20.20662  eV     1   --> A              
     e(132 -132) =     20.36581  eV     1   --> A              
     e(133 -133) =     20.39883  eV     1   --> A              
     e(134 -134) =     20.48334  eV     1   --> A              
     e(135 -135) =     20.61240  eV     1   --> A              
     e(136 -136) =     20.68132  eV     1   --> A              
     e(137 -137) =     20.76579  eV     1   --> A              
     e(138 -138) =     20.98871  eV     1   --> A              
     e(139 -139) =     21.31443  eV     1   --> A              
     e(140 -140) =     21.36304  eV     1   --> A              
     e(141 -141) =     21.49358  eV     1   --> A              
     e(142 -142) =     21.59433  eV     1   --> A              
     e(143 -143) =     21.64033  eV     1   --> A              
     e(144 -144) =     21.83551  eV     1   --> A              
     e(145 -145) =     21.84423  eV     1   --> A              
     e(146 -146) =     21.87814  eV     1   --> A              
     e(147 -147) =     22.11723  eV     1   --> A              
     e(148 -148) =     22.12999  eV     1   --> A              
     e(149 -149) =     22.20199  eV     1   --> A              
     e(150 -150) =     22.21952  eV     1   --> A              
     e(151 -151) =     22.37933  eV     1   --> A              
     e(152 -152) =     22.46048  eV     1   --> A              
     e(153 -153) =     22.60147  eV     1   --> A              
     e(154 -154) =     22.63842  eV     1   --> A              
     e(155 -155) =     22.77130  eV     1   --> A              
     e(156 -156) =     22.87793  eV     1   --> A              
     e(157 -157) =     22.94799  eV     1   --> A              
     e(158 -158) =     23.02645  eV     1   --> A              
     e(159 -159) =     23.14802  eV     1   --> A              
     e(160 -160) =     23.25284  eV     1   --> A              
     e(161 -161) =     23.27958  eV     1   --> A              
     e(162 -162) =     23.45533  eV     1   --> A              
     e(163 -163) =     23.51029  eV     1   --> A              
     e(164 -164) =     23.64038  eV     1   --> A              
     e(165 -165) =     23.67213  eV     1   --> A              
     e(166 -166) =     23.90407  eV     1   --> A              
     e(167 -167) =     24.13924  eV     1   --> A              
     e(168 -168) =     24.22131  eV     1   --> A              
     e(169 -169) =     24.44978  eV     1   --> A              
     e(170 -170) =     24.49804  eV     1   --> A              
     e(171 -171) =     24.49862  eV     1   --> A              
     e(172 -172) =     24.92264  eV     1   --> A              
     e(173 -173) =     25.01346  eV     1   --> A              
     e(174 -174) =     25.37359  eV     1   --> A              
     e(175 -175) =     25.48889  eV     1   --> A              
     e(176 -176) =     25.53617  eV     1   --> A              
     e(177 -177) =     25.56323  eV     1   --> A              
     e(178 -178) =     25.90370  eV     1   --> A              
     e(179 -179) =     25.97755  eV     1   --> A              
     e(180 -180) =     26.11705  eV     1   --> A              
     e(181 -181) =     26.28306  eV     1   --> A              
     e(182 -182) =     26.33207  eV     1   --> A              
     e(183 -183) =     26.40979  eV     1   --> A              
     e(184 -184) =     26.86137  eV     1   --> A              
     e(185 -185) =     27.02817  eV     1   --> A              
     e(186 -186) =     27.13755  eV     1   --> A              
     e(187 -187) =     27.20942  eV     1   --> A              
     e(188 -188) =     27.21352  eV     1   --> A              
     e(189 -189) =     27.32428  eV     1   --> A              
     e(190 -190) =     27.46459  eV     1   --> A              
     e(191 -191) =     27.75526  eV     1   --> A              
     e(192 -192) =     27.88543  eV     1   --> A              
     e(193 -193) =     27.88735  eV     1   --> A              
     e(194 -194) =     28.04017  eV     1   --> A              
     e(195 -195) =     28.55836  eV     1   --> A              
     e(196 -196) =     28.62290  eV     1   --> A              
     e(197 -197) =     28.74208  eV     1   --> A              
     e(198 -198) =     28.87987  eV     1   --> A              
     e(199 -199) =     28.89718  eV     1   --> A              
     e(200 -200) =     28.91940  eV     1   --> A              

 **************************************************************************

 **************************************************************************

                    xk=(  -5.26859,  -3.04183,   0.27894  )

     Band symmetry, C_1 (1)     point group:

     e(  1 -  1) =    -74.82472  eV     1   --> A              
     e(  2 -  2) =    -69.92056  eV     1   --> A              
     e(  3 -  3) =    -43.55861  eV     1   --> A              
     e(  4 -  4) =    -43.55686  eV     1   --> A              
     e(  5 -  5) =    -43.55676  eV     1   --> A              
     e(  6 -  6) =    -38.74297  eV     1   --> A              
     e(  7 -  7) =    -38.74281  eV     1   --> A              
     e(  8 -  8) =    -38.73895  eV     1   --> A              
     e(  9 -  9) =    -15.53764  eV     1   --> A              
     e( 10 - 10) =    -15.53644  eV     1   --> A              
     e( 11 - 11) =    -15.53262  eV     1   --> A              
     e( 12 - 12) =    -15.53182  eV     1   --> A              
     e( 13 - 13) =    -15.53143  eV     1   --> A              
     e( 14 - 14) =    -15.53131  eV     1   --> A              
     e( 15 - 15) =    -15.52680  eV     1   --> A              
     e( 16 - 16) =    -15.52630  eV     1   --> A              
     e( 17 - 17) =    -15.52137  eV     1   --> A              
     e( 18 - 18) =    -15.52018  eV     1   --> A              
     e( 19 - 19) =    -15.51916  eV     1   --> A              
     e( 20 - 20) =    -15.51797  eV     1   --> A              
     e( 21 - 21) =    -15.51750  eV     1   --> A              
     e( 22 - 22) =    -15.51630  eV     1   --> A              
     e( 23 - 23) =    -15.51613  eV     1   --> A              
     e( 24 - 24) =    -15.51560  eV     1   --> A              
     e( 25 - 25) =    -15.51361  eV     1   --> A              
     e( 26 - 26) =    -15.51311  eV     1   --> A              
     e( 27 - 27) =    -15.51186  eV     1   --> A              
     e( 28 - 28) =    -15.51135  eV     1   --> A              
     e( 29 - 29) =     -5.32307  eV     1   --> A              
     e( 30 - 30) =     -5.29451  eV     1   --> A              
     e( 31 - 31) =     -5.13680  eV     1   --> A              
     e( 32 - 32) =     -5.09302  eV     1   --> A              
     e( 33 - 33) =     -3.65134  eV     1   --> A              
     e( 34 - 34) =     -3.46673  eV     1   --> A              
     e( 35 - 35) =     -3.21472  eV     1   --> A              
     e( 36 - 36) =     -2.97297  eV     1   --> A              
     e( 37 - 37) =     -1.62928  eV     1   --> A              
     e( 38 - 38) =     -1.38805  eV     1   --> A              
     e( 39 - 39) =     -1.08450  eV     1   --> A              
     e( 40 - 40) =     -0.91647  eV     1   --> A              
     e( 41 - 41) =      1.92826  eV     1   --> A              
     e( 42 - 42) =      1.93282  eV     1   --> A              
     e( 43 - 43) =      1.98520  eV     1   --> A              
     e( 44 - 44) =      2.14400  eV     1   --> A              
     e( 45 - 45) =      2.15108  eV     1   --> A              
     e( 46 - 46) =      3.94948  eV     1   --> A              
     e( 47 - 47) =      3.96002  eV     1   --> A              
     e( 48 - 48) =      4.35864  eV     1   --> A              
     e( 49 - 49) =      4.48943  eV     1   --> A              
     e( 50 - 50) =      4.88952  eV     1   --> A              
     e( 51 - 51) =      5.14245  eV     1   --> A              
     e( 52 - 52) =      5.22585  eV     1   --> A              
     e( 53 - 53) =      5.32714  eV     1   --> A              
     e( 54 - 54) =      5.42154  eV     1   --> A              
     e( 55 - 55) =      5.47883  eV     1   --> A              
     e( 56 - 56) =      5.66316  eV     1   --> A              
     e( 57 - 57) =      5.78346  eV     1   --> A              
     e( 58 - 58) =      5.93306  eV     1   --> A              
     e( 59 - 59) =      5.97672  eV     1   --> A              
     e( 60 - 60) =      6.35384  eV     1   --> A              
     e( 61 - 61) =      6.41917  eV     1   --> A              
     e( 62 - 62) =      6.59421  eV     1   --> A              
     e( 63 - 63) =      6.71369  eV     1   --> A              
     e( 64 - 64) =      6.84813  eV     1   --> A              
     e( 65 - 65) =      6.86518  eV     1   --> A              
     e( 66 - 66) =      6.90263  eV     1   --> A              
     e( 67 - 67) =      7.28428  eV     1   --> A              
     e( 68 - 68) =      7.31346  eV     1   --> A              
     e( 69 - 69) =      7.40666  eV     1   --> A              
     e( 70 - 70) =      8.66200  eV     1   --> A              
     e( 71 - 71) =      8.77297  eV     1   --> A              
     e( 72 - 72) =      9.08188  eV     1   --> A              
     e( 73 - 73) =      9.27172  eV     1   --> A              
     e( 74 - 74) =      9.29397  eV     1   --> A              
     e( 75 - 75) =      9.39437  eV     1   --> A              
     e( 76 - 76) =      9.46472  eV     1   --> A              
     e( 77 - 77) =      9.58786  eV     1   --> A              
     e( 78 - 78) =      9.77900  eV     1   --> A              
     e( 79 - 79) =      9.78497  eV     1   --> A              
     e( 80 - 80) =      9.91903  eV     1   --> A              
     e( 81 - 81) =     10.00030  eV     1   --> A              
     e( 82 - 82) =     10.26498  eV     1   --> A              
     e( 83 - 83) =     10.29018  eV     1   --> A              
     e( 84 - 84) =     10.46873  eV     1   --> A              
     e( 85 - 85) =     10.87242  eV     1   --> A              
     e( 86 - 86) =     11.02570  eV     1   --> A              
     e( 87 - 87) =     11.43407  eV     1   --> A              
     e( 88 - 88) =     11.93388  eV     1   --> A              
     e( 89 - 89) =     12.14277  eV     1   --> A              
     e( 90 - 90) =     12.38798  eV     1   --> A              
     e( 91 - 91) =     12.59494  eV     1   --> A              
     e( 92 - 92) =     12.91795  eV     1   --> A              
     e( 93 - 93) =     12.97031  eV     1   --> A              
     e( 94 - 94) =     13.08869  eV     1   --> A              
     e( 95 - 95) =     13.20187  eV     1   --> A              
     e( 96 - 96) =     13.33496  eV     1   --> A              
     e( 97 - 97) =     13.69768  eV     1   --> A              
     e( 98 - 98) =     13.77147  eV     1   --> A              
     e( 99 - 99) =     13.83161  eV     1   --> A              
     e(100 -100) =     14.03248  eV     1   --> A              
     e(101 -101) =     14.09566  eV     1   --> A              
     e(102 -102) =     14.23349  eV     1   --> A              
     e(103 -103) =     14.26309  eV     1   --> A              
     e(104 -104) =     14.42220  eV     1   --> A              
     e(105 -105) =     14.50295  eV     1   --> A              
     e(106 -106) =     14.67935  eV     1   --> A              
     e(107 -107) =     14.99671  eV     1   --> A              
     e(108 -108) =     15.07249  eV     1   --> A              
     e(109 -109) =     15.40948  eV     1   --> A              
     e(110 -110) =     15.52663  eV     1   --> A              
     e(111 -111) =     15.83194  eV     1   --> A              
     e(112 -112) =     15.87422  eV     1   --> A              
     e(113 -113) =     16.00729  eV     1   --> A              
     e(114 -114) =     16.01797  eV     1   --> A              
     e(115 -115) =     16.35345  eV     1   --> A              
     e(116 -116) =     16.55203  eV     1   --> A              
     e(117 -117) =     16.59100  eV     1   --> A              
     e(118 -118) =     16.76950  eV     1   --> A              
     e(119 -119) =     16.77534  eV     1   --> A              
     e(120 -120) =     17.10201  eV     1   --> A              
     e(121 -121) =     17.18023  eV     1   --> A              
     e(122 -122) =     17.36554  eV     1   --> A              
     e(123 -123) =     17.42718  eV     1   --> A              
     e(124 -124) =     17.43177  eV     1   --> A              
     e(125 -125) =     17.50495  eV     1   --> A              
     e(126 -126) =     17.69974  eV     1   --> A              
     e(127 -127) =     18.00909  eV     1   --> A              
     e(128 -128) =     18.05536  eV     1   --> A              
     e(129 -129) =     18.11006  eV     1   --> A              
     e(130 -130) =     18.36356  eV     1   --> A              
     e(131 -131) =     18.44975  eV     1   --> A              
     e(132 -132) =     18.54771  eV     1   --> A              
     e(133 -133) =     18.62812  eV     1   --> A              
     e(134 -134) =     19.13242  eV     1   --> A              
     e(135 -135) =     19.24576  eV     1   --> A              
     e(136 -136) =     19.40237  eV     1   --> A              
     e(137 -137) =     19.65158  eV     1   --> A              
     e(138 -138) =     19.75266  eV     1   --> A              
     e(139 -139) =     19.89429  eV     1   --> A              
     e(140 -140) =     20.13760  eV     1   --> A              
     e(141 -141) =     20.38140  eV     1   --> A              
     e(142 -142) =     20.67927  eV     1   --> A              
     e(143 -143) =     20.85487  eV     1   --> A              
     e(144 -144) =     20.89308  eV     1   --> A              
     e(145 -145) =     20.95617  eV     1   --> A              
     e(146 -146) =     21.15680  eV     1   --> A              
     e(147 -147) =     21.49196  eV     1   --> A              
     e(148 -148) =     21.70846  eV     1   --> A              
     e(149 -149) =     21.83737  eV     1   --> A              
     e(150 -150) =     22.06297  eV     1   --> A              
     e(151 -151) =     22.29271  eV     1   --> A              
     e(152 -152) =     22.77586  eV     1   --> A              
     e(153 -153) =     22.82322  eV     1   --> A              
     e(154 -154) =     23.01697  eV     1   --> A              
     e(155 -155) =     23.19330  eV     1   --> A              
     e(156 -156) =     23.31574  eV     1   --> A              
     e(157 -157) =     23.36894  eV     1   --> A              
     e(158 -158) =     23.76337  eV     1   --> A              
     e(159 -159) =     24.25847  eV     1   --> A              
     e(160 -160) =     24.38580  eV     1   --> A              
     e(161 -161) =     24.58292  eV     1   --> A              
     e(162 -162) =     24.76547  eV     1   --> A              
     e(163 -163) =     25.05822  eV     1   --> A              
     e(164 -164) =     25.32928  eV     1   --> A              
     e(165 -165) =     25.33442  eV     1   --> A              
     e(166 -166) =     25.58883  eV     1   --> A              
     e(167 -167) =     25.67400  eV     1   --> A              
[...]
     e( 44 - 44) =      2.14399  eV     1   --> A              
     e( 45 - 45) =      2.15109  eV     1   --> A              
     e( 46 - 46) =      3.94896  eV     1   --> A              
     e( 47 - 47) =      3.96123  eV     1   --> A              
     e( 48 - 48) =      4.33683  eV     1   --> A              
     e( 49 - 49) =      4.52654  eV     1   --> A              
     e( 50 - 50) =      4.88189  eV     1   --> A              
     e( 51 - 51) =      5.11445  eV     1   --> A              
     e( 52 - 52) =      5.20983  eV     1   --> A              
     e( 53 - 53) =      5.34931  eV     1   --> A              
     e( 54 - 54) =      5.42306  eV     1   --> A              
     e( 55 - 55) =      5.47582  eV     1   --> A              
     e( 56 - 56) =      5.66783  eV     1   --> A              
     e( 57 - 57) =      5.77968  eV     1   --> A              
     e( 58 - 58) =      5.95501  eV     1   --> A              
     e( 59 - 59) =      6.05701  eV     1   --> A              
     e( 60 - 60) =      6.27995  eV     1   --> A              
     e( 61 - 61) =      6.35545  eV     1   --> A              
     e( 62 - 62) =      6.57210  eV     1   --> A              
     e( 63 - 63) =      6.71197  eV     1   --> A              
     e( 64 - 64) =      6.86549  eV     1   --> A              
     e( 65 - 65) =      6.87059  eV     1   --> A              
     e( 66 - 66) =      6.99952  eV     1   --> A              
     e( 67 - 67) =      7.24131  eV     1   --> A              
     e( 68 - 68) =      7.31403  eV     1   --> A              
     e( 69 - 69) =      7.40732  eV     1   --> A              
     e( 70 - 70) =      8.60638  eV     1   --> A              
     e( 71 - 71) =      8.81368  eV     1   --> A              
     e( 72 - 72) =      9.06775  eV     1   --> A              
     e( 73 - 73) =      9.33654  eV     1   --> A              
     e( 74 - 74) =      9.33800  eV     1   --> A              
     e( 75 - 75) =      9.38154  eV     1   --> A              
     e( 76 - 76) =      9.47933  eV     1   --> A              
     e( 77 - 77) =      9.53563  eV     1   --> A              
     e( 78 - 78) =      9.65559  eV     1   --> A              
     e( 79 - 79) =      9.80216  eV     1   --> A              
     e( 80 - 80) =      9.98109  eV     1   --> A              
     e( 81 - 81) =     10.02709  eV     1   --> A              
     e( 82 - 82) =     10.24962  eV     1   --> A              
     e( 83 - 83) =     10.29016  eV     1   --> A              
     e( 84 - 84) =     10.46816  eV     1   --> A              
     e( 85 - 85) =     10.87125  eV     1   --> A              
     e( 86 - 86) =     11.02544  eV     1   --> A              
     e( 87 - 87) =     11.43451  eV     1   --> A              
     e( 88 - 88) =     11.94792  eV     1   --> A              
     e( 89 - 89) =     12.12507  eV     1   --> A              
     e( 90 - 90) =     12.38812  eV     1   --> A              
     e( 91 - 91) =     12.59311  eV     1   --> A              
     e( 92 - 92) =     12.92775  eV     1   --> A              
     e( 93 - 93) =     12.97480  eV     1   --> A              
     e( 94 - 94) =     13.08708  eV     1   --> A              
     e( 95 - 95) =     13.20312  eV     1   --> A              
     e( 96 - 96) =     13.32796  eV     1   --> A              
     e( 97 - 97) =     13.69356  eV     1   --> A              
     e( 98 - 98) =     13.74174  eV     1   --> A              
     e( 99 - 99) =     13.83012  eV     1   --> A              
     e(100 -100) =     14.06101  eV     1   --> A              
     e(101 -101) =     14.10084  eV     1   --> A              
     e(102 -102) =     14.21749  eV     1   --> A              
     e(103 -103) =     14.25101  eV     1   --> A              
     e(104 -104) =     14.40232  eV     1   --> A              
     e(105 -105) =     14.66171  eV     1   --> A              
     e(106 -106) =     14.75095  eV     1   --> A              
     e(107 -107) =     14.91263  eV     1   --> A              
     e(108 -108) =     14.91504  eV     1   --> A              
     e(109 -109) =     15.37441  eV     1   --> A              
     e(110 -110) =     15.61791  eV     1   --> A              
     e(111 -111) =     15.77989  eV     1   --> A              
     e(112 -112) =     15.85483  eV     1   --> A              
     e(113 -113) =     15.93857  eV     1   --> A              
     e(114 -114) =     16.11733  eV     1   --> A              
     e(115 -115) =     16.47108  eV     1   --> A              
     e(116 -116) =     16.49801  eV     1   --> A              
     e(117 -117) =     16.57758  eV     1   --> A              
     e(118 -118) =     16.77859  eV     1   --> A              
     e(119 -119) =     16.87064  eV     1   --> A              
     e(120 -120) =     17.13660  eV     1   --> A              
     e(121 -121) =     17.23012  eV     1   --> A              
     e(122 -122) =     17.26403  eV     1   --> A              
     e(123 -123) =     17.28399  eV     1   --> A              
     e(124 -124) =     17.53460  eV     1   --> A              
     e(125 -125) =     17.61204  eV     1   --> A              
     e(126 -126) =     17.77162  eV     1   --> A              
     e(127 -127) =     17.78211  eV     1   --> A              
     e(128 -128) =     17.79051  eV     1   --> A              
     e(129 -129) =     18.17630  eV     1   --> A              
     e(130 -130) =     18.27663  eV     1   --> A              
     e(131 -131) =     18.49030  eV     1   --> A              
     e(132 -132) =     18.64141  eV     1   --> A              
     e(133 -133) =     18.74761  eV     1   --> A              
     e(134 -134) =     19.26838  eV     1   --> A              
     e(135 -135) =     19.32932  eV     1   --> A              
     e(136 -136) =     19.40004  eV     1   --> A              
     e(137 -137) =     19.43027  eV     1   --> A              
     e(138 -138) =     19.89367  eV     1   --> A              
     e(139 -139) =     20.02186  eV     1   --> A              
     e(140 -140) =     20.22259  eV     1   --> A              
     e(141 -141) =     20.36889  eV     1   --> A              
     e(142 -142) =     20.52088  eV     1   --> A              
     e(143 -143) =     20.62572  eV     1   --> A              
     e(144 -144) =     20.70797  eV     1   --> A              
     e(145 -145) =     20.81734  eV     1   --> A              
     e(146 -146) =     21.25074  eV     1   --> A              
     e(147 -147) =     21.63675  eV     1   --> A              
     e(148 -148) =     21.85423  eV     1   --> A              
     e(149 -149) =     21.92348  eV     1   --> A              
     e(150 -150) =     22.13834  eV     1   --> A              
     e(151 -151) =     22.20332  eV     1   --> A              
     e(152 -152) =     22.68882  eV     1   --> A              
     e(153 -153) =     22.75750  eV     1   --> A              
     e(154 -154) =     23.25475  eV     1   --> A              
     e(155 -155) =     23.27840  eV     1   --> A              
     e(156 -156) =     23.40100  eV     1   --> A              
     e(157 -157) =     23.44982  eV     1   --> A              
     e(158 -158) =     23.72419  eV     1   --> A              
     e(159 -159) =     23.94714  eV     1   --> A              
     e(160 -160) =     24.09165  eV     1   --> A              
     e(161 -161) =     24.51055  eV     1   --> A              
     e(162 -162) =     24.91217  eV     1   --> A              
     e(163 -163) =     25.04648  eV     1   --> A              
     e(164 -164) =     25.11675  eV     1   --> A              
     e(165 -165) =     25.60080  eV     1   --> A              
     e(166 -166) =     25.65821  eV     1   --> A              
     e(167 -167) =     25.68151  eV     1   --> A              
     e(168 -168) =     25.73327  eV     1   --> A              
     e(169 -169) =     25.74878  eV     1   --> A              
     e(170 -170) =     25.90017  eV     1   --> A              
     e(171 -171) =     25.93329  eV     1   --> A              
     e(172 -172) =     26.12792  eV     1   --> A              
     e(173 -173) =     26.16085  eV     1   --> A              
     e(174 -174) =     26.30470  eV     1   --> A              
     e(175 -175) =     26.37815  eV     1   --> A              
     e(176 -176) =     26.39372  eV     1   --> A              
     e(177 -177) =     26.69891  eV     1   --> A              
     e(178 -178) =     26.89288  eV     1   --> A              
     e(179 -179) =     26.97323  eV     1   --> A              
     e(180 -180) =     27.03789  eV     1   --> A              
     e(181 -181) =     27.16201  eV     1   --> A              
     e(182 -182) =     27.27174  eV     1   --> A              
     e(183 -183) =     27.29144  eV     1   --> A              
     e(184 -184) =     27.56389  eV     1   --> A              
     e(185 -185) =     27.69253  eV     1   --> A              
     e(186 -186) =     27.86109  eV     1   --> A              
     e(187 -187) =     27.94360  eV     1   --> A              
     e(188 -188) =     28.09839  eV     1   --> A              
     e(189 -189) =     28.19004  eV     1   --> A              
     e(190 -190) =     28.20155  eV     1   --> A              
     e(191 -191) =     28.40468  eV     1   --> A              
     e(192 -192) =     28.46438  eV     1   --> A              
     e(193 -193) =     28.62004  eV     1   --> A              
     e(194 -194) =     28.85125  eV     1   --> A              
     e(195 -195) =     28.87640  eV     1   --> A              
     e(196 -196) =     29.26089  eV     1   --> A              
     e(197 -197) =     29.44096  eV     1   --> A              
     e(198 -198) =     29.46608  eV     1   --> A              
     e(199 -199) =     29.50403  eV     1   --> A              
     e(200 -200) =     29.55539  eV     1   --> A              

 **************************************************************************

 **************************************************************************

                    xk=(   0.00000,   0.00000,   0.83683  )

     Band symmetry, C_1 (1)     point group:

     e(  1 -  1) =    -74.82472  eV     1   --> A              
     e(  2 -  2) =    -69.92056  eV     1   --> A              
     e(  3 -  3) =    -43.55863  eV     1   --> A              
     e(  4 -  5) =    -43.55673  eV     2   -->   2 A              
     e(  6 -  7) =    -38.74276  eV     2   -->   2 A              
     e(  8 -  8) =    -38.73898  eV     1   --> A              
     e(  9 - 10) =    -15.53516  eV     2   -->   2 A              
     e( 11 - 12) =    -15.53396  eV     2   -->   2 A              
     e( 13 - 14) =    -15.52936  eV     2   -->   2 A              
     e( 15 - 16) =    -15.52885  eV     2   -->   2 A              
     e( 17 - 17) =    -15.52318  eV     1   --> A              
     e( 18 - 18) =    -15.52197  eV     1   --> A              
     e( 19 - 20) =    -15.51841  eV     2   -->   2 A              
     e( 21 - 21) =    -15.51805  eV     1   --> A              
     e( 22 - 22) =    -15.51749  eV     1   --> A              
     e( 23 - 24) =    -15.51721  eV     2   -->   2 A              
     e( 25 - 26) =    -15.51273  eV     2   -->   2 A              
     e( 27 - 28) =    -15.51222  eV     2   -->   2 A              
     e( 29 - 29) =     -5.56357  eV     1   --> A              
     e( 30 - 30) =     -5.53676  eV     1   --> A              
     e( 31 - 31) =     -5.36957  eV     1   --> A              
     e( 32 - 32) =     -5.32863  eV     1   --> A              
     e( 33 - 33) =     -3.81761  eV     1   --> A              
     e( 34 - 34) =     -3.64369  eV     1   --> A              
     e( 35 - 35) =     -3.31452  eV     1   --> A              
     e( 36 - 36) =     -3.08186  eV     1   --> A              
     e( 37 - 37) =     -1.53795  eV     1   --> A              
     e( 38 - 38) =     -1.24213  eV     1   --> A              
     e( 39 - 39) =     -0.83689  eV     1   --> A              
     e( 40 - 40) =     -0.60086  eV     1   --> A              
     e( 41 - 42) =      1.88897  eV     2   -->   2 A              
     e( 43 - 43) =      1.95067  eV     1   --> A              
     e( 44 - 45) =      2.15851  eV     2   -->   2 A              
     e( 46 - 46) =      4.15202  eV     1   --> A              
     e( 47 - 47) =      4.35127  eV     1   --> A              
     e( 48 - 48) =      5.15210  eV     1   --> A              
     e( 49 - 49) =      5.51928  eV     1   --> A              
     e( 50 - 51) =      5.93647  eV     2   -->   2 A              
     e( 52 - 53) =      5.98199  eV     2   -->   2 A              
     e( 54 - 55) =      6.10093  eV     2   -->   2 A              
     e( 56 - 57) =      6.19163  eV     2   -->   2 A              
     e( 58 - 58) =      6.27397  eV     1   --> A              
     e( 59 - 60) =      6.43468  eV     2   -->   2 A              
     e( 61 - 61) =      6.57810  eV     1   --> A              
     e( 62 - 63) =      6.94280  eV     2   -->   2 A              
     e( 64 - 65) =      7.03001  eV     2   -->   2 A              
     e( 66 - 67) =      7.25166  eV     2   -->   2 A              
     e( 68 - 68) =      7.53227  eV     1   --> A              
     e( 69 - 69) =      7.76662  eV     1   --> A              
     e( 70 - 70) =      8.35389  eV     1   --> A              
     e( 71 - 71) =      8.60372  eV     1   --> A              
     e( 72 - 73) =      8.81213  eV     2   -->   2 A              
     e( 74 - 75) =      8.92499  eV     2   -->   2 A              
     e( 76 - 76) =      9.02732  eV     1   --> A              
     e( 77 - 77) =      9.16607  eV     1   --> A              
     e( 78 - 79) =      9.25828  eV     2   -->   2 A              
     e( 80 - 81) =      9.36477  eV     2   -->   2 A              
     e( 82 - 83) =     10.11381  eV     2   -->   2 A              
     e( 84 - 84) =     10.15113  eV     1   --> A              
     e( 85 - 86) =     10.84951  eV     2   -->   2 A              
     e( 87 - 87) =     11.40383  eV     1   --> A              
     e( 88 - 88) =     11.61982  eV     1   --> A              
     e( 89 - 89) =     11.71408  eV     1   --> A              
     e( 90 - 90) =     12.57066  eV     1   --> A              
     e( 91 - 92) =     12.74312  eV     2   -->   2 A              
     e( 93 - 93) =     13.27370  eV     1   --> A              
     e( 94 - 95) =     13.30579  eV     2   -->   2 A              
     e( 96 - 96) =     13.34648  eV     1   --> A              
     e( 97 - 97) =     13.59385  eV     1   --> A              
     e( 98 - 99) =     13.75067  eV     2   -->   2 A              
     e(100 -100) =     13.82245  eV     1   --> A              
     e(101 -101) =     14.00928  eV     1   --> A              
     e(102 -103) =     14.08793  eV     2   -->   2 A              
     e(104 -105) =     14.32645  eV     2   -->   2 A              
     e(106 -106) =     14.58865  eV     1   --> A              
     e(107 -108) =     14.76097  eV     2   -->   2 A              
     e(109 -109) =     15.08511  eV     1   --> A              
     e(110 -110) =     15.21071  eV     1   --> A              
     e(111 -112) =     15.45252  eV     2   -->   2 A              
     e(113 -113) =     15.48367  eV     1   --> A              
     e(114 -115) =     15.61963  eV     2   -->   2 A              
     e(116 -116) =     15.82450  eV     1   --> A              
     e(117 -117) =     16.06441  eV     1   --> A              
     e(118 -119) =     16.22905  eV     2   -->   2 A              
     e(120 -121) =     16.25629  eV     2   -->   2 A              
     e(122 -122) =     16.59562  eV     1   --> A              
     e(123 -124) =     16.74674  eV     2   -->   2 A              
     e(125 -125) =     16.94088  eV     1   --> A              
     e(126 -127) =     17.01624  eV     2   -->   2 A              
     e(128 -128) =     17.75139  eV     1   --> A              
     e(129 -130) =     18.00042  eV     2   -->   2 A              
     e(131 -131) =     18.22576  eV     1   --> A              
     e(132 -132) =     18.30895  eV     1   --> A              
     e(133 -134) =     18.47174  eV     2   -->   2 A              
     e(135 -135) =     19.06966  eV     1   --> A              
     e(136 -137) =     19.17852  eV     2   -->   2 A              
     e(138 -138) =     19.24366  eV     1   --> A              
     e(139 -140) =     19.24870  eV     2   -->   2 A              
     e(141 -141) =     19.62611  eV     1   --> A              
     e(142 -142) =     20.25557  eV     1   --> A              
     e(143 -144) =     20.69054  eV     2   -->   2 A              
     e(145 -146) =     21.01171  eV     2   -->   2 A              
     e(147 -147) =     21.01456  eV     1   --> A              
     e(148 -148) =     21.27563  eV     1   --> A              
     e(149 -150) =     21.52465  eV     2   -->   2 A              
     e(151 -151) =     21.55880  eV     1   --> A              
     e(152 -153) =     21.98928  eV     2   -->   2 A              
     e(154 -154) =     22.20052  eV     1   --> A              
     e(155 -155) =     22.87389  eV     1   --> A              
     e(156 -157) =     23.31659  eV     2   -->   2 A              
     e(158 -159) =     23.69185  eV     2   -->   2 A              
     e(160 -160) =     23.74439  eV     1   --> A              
     e(161 -162) =     24.38107  eV     2   -->   2 A              
     e(163 -163) =     24.49306  eV     1   --> A              
     e(164 -165) =     25.21956  eV     2   -->   2 A              
     e(166 -166) =     25.41752  eV     1   --> A              
     e(167 -167) =     25.93741  eV     1   --> A              
     e(168 -168) =     26.17717  eV     1   --> A              
     e(169 -170) =     26.30491  eV     2   -->   2 A              
     e(171 -171) =     26.73455  eV     1   --> A              
     e(172 -173) =     27.10319  eV     2   -->   2 A              
     e(174 -174) =     27.24787  eV     1   --> A              
     e(175 -176) =     27.71192  eV     2   -->   2 A              
     e(177 -178) =     28.14575  eV     2   -->   2 A              
     e(179 -179) =     28.22765  eV     1   --> A              
     e(180 -180) =     28.46714  eV     1   --> A              
     e(181 -181) =     28.51049  eV     1   --> A              
     e(182 -182) =     28.60391  eV     1   --> A              
     e(183 -183) =     28.65697  eV     1   --> A              
     e(184 -184) =     28.66572  eV     1   --> A              
     e(185 -185) =     29.23139  eV     1   --> A              
     e(186 -187) =     29.38875  eV     2   -->   2 A              
     e(188 -189) =     29.62692  eV     2   -->   2 A              
     e(190 -191) =     29.78137  eV     2   -->   2 A              
     e(192 -192) =     29.91208  eV     1   --> A              
     e(193 -194) =     30.02930  eV     2   -->   2 A              
     e(195 -196) =     30.17190  eV     2   -->   2 A              
     e(197 -197) =     30.37507  eV     1   --> A              
     e(198 -198) =     30.40802  eV     1   --> A              
     e(199 -199) =     30.62494  eV     1   --> A              
     e(200 -200) =     30.67366  eV     1   --> A              

 **************************************************************************
 
     BANDS        :      1h50m CPU      2h28m WALL

 
   This run was terminated on:  20:50:45  16Sep2025            

=------------------------------------------------------------------------------=
   JOB DONE.
=------------------------------------------------------------------------------=
