
     Program PWSCF v.7.2 starts on  3Sep2025 at 16:47:39 

     This program is part of the open-source Quantum ESPRESSO suite
     for quantum simulation of materials; please cite
         "P. Giannozzi et al., J. Phys.:Condens. Matter 21 395502 (2009);
         "P. Giannozzi et al., J. Phys.:Condens. Matter 29 465901 (2017);
         "P. Giannozzi et al., J. Chem. Phys. 152 154105 (2020);
          URL http://www.quantum-espresso.org", 
     in publications or presentations arising from this work. More details at
     http://www.quantum-espresso.org/quote

     Parallel version (MPI), running on    32 processors

     MPI processes distributed on     1 nodes
     253539 MiB available memory on the printing compute node when the environment starts
 
     Reading input from MnBi2Te4.scf.in

     Current dimensions of program PWSCF are:
     Max number of different atomic species (ntypx) = 10
     Max number of k-points (npk) =  40000
     Max angular momentum in pseudopotentials (lmaxx) =  4
     file Mn.pbe-spn-kjpaw_psl.0.3.1.UPF: wavefunction(s)  3P 3D renormalized
     file Mn.pbe-spn-kjpaw_psl.0.3.1.UPF: wavefunction(s)  3P 3D renormalized
     file Bi.pbe-dn-kjpaw_psl.1.0.0.UPF: wavefunction(s)  6P 5D renormalized
     file Te.pbe-n-kjpaw_psl.1.0.0.UPF: wavefunction(s)  5S 5P renormalized
 
     R & G space division:  proc/nbgrp/npool/nimage =      32
     Subspace diagonalization in iterative solution of the eigenvalue problem:
     one sub-group per band group will be used
     scalapack distributed-memory algorithm (size of sub-group:  2*  2 procs)

 
     Parallelization info
     --------------------
     sticks:   dense  smooth     PW     G-vecs:    dense   smooth      PW
     Min         252     252     73                 5873     5873     932
     Max         253     253     74                 5875     5875     933
     Sum        8079    8079   2353               187971   187971   29827
 
     Using Slab Decomposition
 


     bravais-lattice index     =            0
     lattice parameter (alat)  =      51.7756  a.u.
     unit-cell volume          =    2994.5794 (a.u.)^3
     number of atoms/cell      =           14
     number of atomic types    =            4
     number of electrons       =       138.00
     number of Kohn-Sham states=          200
     kinetic-energy cutoff     =      60.0000  Ry
     charge density cutoff     =     240.0000  Ry
     scf convergence threshold =      1.0E-07
     mixing beta               =       0.4000
     number of iterations used =            8  plain     mixing
     Exchange-correlation= SLA  PW   PBX  PBC
                           (   1   4   3   4   0   0   0)
     Hubbard projectors: ortho-atomic
     Hubbard parameters of DFT+U (Dudarev formulation) in eV:
     U(Mn1-3d) =  4.0000
     U(Mn2-3d) =  4.0000

     Internal variables: lda_plus_u = T, lda_plus_u_kind = 0

     celldm(1)=  51.775642  celldm(2)=   0.000000  celldm(3)=   0.000000
     celldm(4)=   0.000000  celldm(5)=   0.000000  celldm(6)=   0.000000

     crystal axes: (cart. coord. in units of alat)
               a(1) = (   0.079085  -0.045660   0.995822 )  
               a(2) = (   0.000000   0.091319   0.995822 )  
               a(3) = (  -0.079085  -0.045660   0.995822 )  

     reciprocal axes: (cart. coord. in units 2 pi/alat)
               b(1) = (  6.322314 -3.650196  0.334731 )  
               b(2) = (  0.000000  7.300392  0.334734 )  
               b(3) = ( -6.322314 -3.650196  0.334731 )  


     PseudoPot. # 1 for Mn read from file:
     ./Mn.pbe-spn-kjpaw_psl.0.3.1.UPF
     MD5 check sum: 872d0d815bb0ce6e24cff79ea4d0ae31
     Pseudo is Projector augmented-wave + core cor, Zval = 15.0
     Generated using &quot;atomic&quot; code by A. Dal Corso  v.6.2.2
     Shape of augmentation charge: PSQ
     Using radial grid of 1187 points,  6 beta functions with: 
                l(1) =   0
                l(2) =   0
                l(3) =   1
                l(4) =   1
                l(5) =   2
                l(6) =   2
     Q(r) pseudized with 0 coefficients 


     PseudoPot. # 2 for Mn read from file:
     ./Mn.pbe-spn-kjpaw_psl.0.3.1.UPF
     MD5 check sum: 872d0d815bb0ce6e24cff79ea4d0ae31
     Pseudo is Projector augmented-wave + core cor, Zval = 15.0
     Generated using &quot;atomic&quot; code by A. Dal Corso  v.6.2.2
     Shape of augmentation charge: PSQ
     Using radial grid of 1187 points,  6 beta functions with: 
                l(1) =   0
                l(2) =   0
                l(3) =   1
                l(4) =   1
                l(5) =   2
                l(6) =   2
     Q(r) pseudized with 0 coefficients 


     PseudoPot. # 3 for Bi read from file:
     ./Bi.pbe-dn-kjpaw_psl.1.0.0.UPF
     MD5 check sum: 29baffecec4108f41a587bcf9a453472
     Pseudo is Projector augmented-wave + core cor, Zval = 15.0
     Generated using &quot;atomic&quot; code by A. Dal Corso  v.6.2.2
     Shape of augmentation charge: PSQ
     Using radial grid of 1283 points,  6 beta functions with: 
                l(1) =   0
                l(2) =   0
                l(3) =   1
                l(4) =   1
                l(5) =   2
                l(6) =   2
     Q(r) pseudized with 0 coefficients 


     PseudoPot. # 4 for Te read from file:
     ./Te.pbe-n-kjpaw_psl.1.0.0.UPF
     MD5 check sum: 960f80ef2db6fd2ef753b89a550c1479
     Pseudo is Projector augmented-wave + core cor, Zval =  6.0
     Generated using &quot;atomic&quot; code by A. Dal Corso  v.6.3
     Shape of augmentation charge: PSQ
     Using radial grid of 1245 points,  6 beta functions with: 
                l(1) =   0
                l(2) =   0
                l(3) =   1
                l(4) =   1
                l(5) =   2
                l(6) =   2
     Q(r) pseudized with 0 coefficients 


     atomic species   valence    mass     pseudopotential
        Mn1           15.00    54.93800     Mn( 1.00)
        Mn2           15.00    54.93800     Mn( 1.00)
        Bi            15.00   208.98000     Bi( 1.00)
        Te             6.00   127.60300     Te( 1.00)

     Starting magnetic structure 
     atomic species   magnetization
        Mn1          0.333
        Mn2         -0.333
        Bi           0.000
        Te           0.000

     No symmetry found


                                    s                        frac. trans.

      isym =  1     identity                                     

 cryst.   s( 1) = (     1          0          0      )
                  (     0          1          0      )
                  (     0          0          1      )

 cart.    s( 1) = (  1.0000000  0.0000000  0.0000000 )
                  (  0.0000000  1.0000000 -0.0000000 )
                  (  0.0000000  0.0000000  1.0000000 )


   Cartesian axes

     site n.     atom                  positions (alat units)
         1           Mn1 tau(   1) = (   0.0000000   0.0000000   0.0000000  )
         2           Mn2 tau(   2) = (   0.0000000  -0.0000005   1.4937325  )
         3           Bi  tau(   3) = (   0.0000000  -0.0000002   0.6346869  )
         4           Bi  tau(   4) = (   0.0000000  -0.0000007   2.1284194  )
         5           Bi  tau(   5) = (   0.0000000  -0.0000003   0.8590455  )
         6           Bi  tau(   6) = (   0.0000000  -0.0000008   2.3527780  )
         7           Te  tau(   7) = (   0.0000000  -0.0000001   0.1992042  )
         8           Te  tau(   8) = (   0.0000000  -0.0000006   1.6929366  )
         9           Te  tau(   9) = (   0.0000000  -0.0000004   1.2945283  )
        10           Te  tau(  10) = (   0.0000000  -0.0000009   2.7882608  )
        11           Te  tau(  11) = (   0.0000000  -0.0000001   0.4392470  )
        12           Te  tau(  12) = (   0.0000000  -0.0000006   1.9329794  )
        13           Te  tau(  13) = (   0.0000000  -0.0000004   1.0544855  )
        14           Te  tau(  14) = (   0.0000000  -0.0000009   2.5482179  )

     --------------------------------------------
     DFT-D3 Dispersion Correction (3-body terms):
     --------------------------------------------
       Reference C6 values for interpolation: 

         atom   Coordination number   C6
         Mn1        0.000          1605.50
         Mn1        1.641           479.11
         Mn1        9.885           227.69
         Mn2        0.000          1605.50
         Mn2        1.641           479.11
         Mn2        9.885           227.69
         Te         0.000           851.07
         Te         0.981           850.20
         Te         1.964           837.16
         Bi         0.000          1235.06
         Bi         0.982          1188.09
         Bi         1.966          1132.10
         Bi         2.950          1067.76

       Values used:

         atom   Coordination number  R0_AB[au]  C6      C8
         Mn1        3.848            3.351    479.11  48433.79
         Mn2        3.848            3.351    479.11  48433.79
         Bi         5.275            3.890   1067.76 147315.96
         Bi         5.275            3.890   1067.76 147315.96
         Bi         5.275            3.890   1067.76 147315.96
         Bi         5.275            3.890   1067.76 147315.96
         Te         3.328            3.676    837.16  84978.06
         Te         3.328            3.676    837.16  84978.06
         Te         3.328            3.676    837.16  84978.06
         Te         3.328            3.676    837.16  84978.06
         Te         4.238            3.676    837.16  84978.05
         Te         4.238            3.676    837.16  84978.05
         Te         4.238            3.676    837.16  84978.05
         Te         4.238            3.676    837.16  84978.05

         Molecular C6 ( Ry / a.u.^6 ) =    164642.77


   Crystallographic axes

     site n.     atom                  positions (cryst. coord.)
         1           Mn1 tau(   1) = (  0.0000000  0.0000000  0.0000000  )
         2           Mn2 tau(   2) = (  0.5000000  0.5000000  0.5000000  )
         3           Bi  tau(   3) = (  0.2124500  0.2124500  0.2124500  )
         4           Bi  tau(   4) = (  0.7124500  0.7124500  0.7124500  )
         5           Bi  tau(   5) = (  0.2875500  0.2875500  0.2875500  )
         6           Bi  tau(   6) = (  0.7875500  0.7875500  0.7875500  )
         7           Te  tau(   7) = (  0.0666800  0.0666800  0.0666800  )
         8           Te  tau(   8) = (  0.5666800  0.5666800  0.5666800  )
         9           Te  tau(   9) = (  0.4333200  0.4333200  0.4333200  )
        10           Te  tau(  10) = (  0.9333200  0.9333200  0.9333200  )
        11           Te  tau(  11) = (  0.1470300  0.1470300  0.1470300  )
        12           Te  tau(  12) = (  0.6470300  0.6470300  0.6470300  )
        13           Te  tau(  13) = (  0.3529700  0.3529700  0.3529700  )
        14           Te  tau(  14) = (  0.8529700  0.8529700  0.8529700  )

     number of k points=    64  Marzari-Vanderbilt smearing, width (Ry)=  0.0020
                       cart. coord. in units 2pi/alat
        k(    1) = (   0.0000000   0.0000000   0.0000000), wk =   0.0156250
        k(    2) = (  -1.5805784  -0.9125490   0.0836827), wk =   0.0156250
        k(    3) = (   3.1611569   1.8250979  -0.1673654), wk =   0.0156250
        k(    4) = (   1.5805784   0.9125490  -0.0836827), wk =   0.0156250
        k(    5) = (   0.0000000   1.8250979   0.0836836), wk =   0.0156250
        k(    6) = (  -1.5805784   0.9125490   0.1673663), wk =   0.0156250
        k(    7) = (   3.1611569   3.6501959  -0.0836818), wk =   0.0156250
        k(    8) = (   1.5805784   2.7376469   0.0000009), wk =   0.0156250
        k(    9) = (   0.0000000  -3.6501959  -0.1673672), wk =   0.0156250
        k(   10) = (  -1.5805784  -4.5627449  -0.0836845), wk =   0.0156250
        k(   11) = (   3.1611569  -1.8250979  -0.3347326), wk =   0.0156250
        k(   12) = (   1.5805784  -2.7376469  -0.2510499), wk =   0.0156250
        k(   13) = (   0.0000000  -1.8250979  -0.0836836), wk =   0.0156250
        k(   14) = (  -1.5805784  -2.7376469  -0.0000009), wk =   0.0156250
        k(   15) = (   3.1611569   0.0000000  -0.2510490), wk =   0.0156250
        k(   16) = (   1.5805784  -0.9125490  -0.1673663), wk =   0.0156250
        k(   17) = (   1.5805784  -0.9125490   0.0836827), wk =   0.0156250
        k(   18) = (   0.0000000  -1.8250979   0.1673654), wk =   0.0156250
        k(   19) = (   4.7417353   0.9125490  -0.0836827), wk =   0.0156250
        k(   20) = (   3.1611569   0.0000000   0.0000000), wk =   0.0156250
        k(   21) = (   1.5805784   0.9125490   0.1673663), wk =   0.0156250
        k(   22) = (   0.0000000   0.0000000   0.2510490), wk =   0.0156250
        k(   23) = (   4.7417353   2.7376469   0.0000009), wk =   0.0156250
        k(   24) = (   3.1611569   1.8250979   0.0836836), wk =   0.0156250
        k(   25) = (   1.5805784  -4.5627449  -0.0836845), wk =   0.0156250
        k(   26) = (   0.0000000  -5.4752938  -0.0000018), wk =   0.0156250
        k(   27) = (   4.7417353  -2.7376469  -0.2510499), wk =   0.0156250
        k(   28) = (   3.1611569  -3.6501959  -0.1673672), wk =   0.0156250
        k(   29) = (   1.5805784  -2.7376469  -0.0000009), wk =   0.0156250
        k(   30) = (   0.0000000  -3.6501959   0.0836818), wk =   0.0156250
        k(   31) = (   4.7417353  -0.9125490  -0.1673663), wk =   0.0156250
        k(   32) = (   3.1611569  -1.8250979  -0.0836836), wk =   0.0156250
        k(   33) = (  -3.1611569   1.8250979  -0.1673654), wk =   0.0156250
        k(   34) = (  -4.7417353   0.9125490  -0.0836827), wk =   0.0156250
        k(   35) = (   0.0000000   3.6501959  -0.3347307), wk =   0.0156250
        k(   36) = (  -1.5805784   2.7376469  -0.2510481), wk =   0.0156250
        k(   37) = (  -3.1611569   3.6501959  -0.0836818), wk =   0.0156250
        k(   38) = (  -4.7417353   2.7376469   0.0000009), wk =   0.0156250
        k(   39) = (   0.0000000   5.4752938  -0.2510471), wk =   0.0156250
        k(   40) = (  -1.5805784   4.5627449  -0.1673645), wk =   0.0156250
        k(   41) = (  -3.1611569  -1.8250979  -0.3347326), wk =   0.0156250
        k(   42) = (  -4.7417353  -2.7376469  -0.2510499), wk =   0.0156250
        k(   43) = (   0.0000000   0.0000000  -0.5020979), wk =   0.0156250
        k(   44) = (  -1.5805784  -0.9125490  -0.4184153), wk =   0.0156250
        k(   45) = (  -3.1611569   0.0000000  -0.2510490), wk =   0.0156250
        k(   46) = (  -4.7417353  -0.9125490  -0.1673663), wk =   0.0156250
        k(   47) = (   0.0000000   1.8250979  -0.4184143), wk =   0.0156250
        k(   48) = (  -1.5805784   0.9125490  -0.3347317), wk =   0.0156250
        k(   49) = (  -1.5805784   0.9125490  -0.0836827), wk =   0.0156250
        k(   50) = (  -3.1611569   0.0000000   0.0000000), wk =   0.0156250
        k(   51) = (   1.5805784   2.7376469  -0.2510481), wk =   0.0156250
        k(   52) = (   0.0000000   1.8250979  -0.1673654), wk =   0.0156250
        k(   53) = (  -1.5805784   2.7376469   0.0000009), wk =   0.0156250
        k(   54) = (  -3.1611569   1.8250979   0.0836836), wk =   0.0156250
        k(   55) = (   1.5805784   4.5627449  -0.1673645), wk =   0.0156250
        k(   56) = (   0.0000000   3.6501959  -0.0836818), wk =   0.0156250
        k(   57) = (  -1.5805784  -2.7376469  -0.2510499), wk =   0.0156250
        k(   58) = (  -3.1611569  -3.6501959  -0.1673672), wk =   0.0156250
        k(   59) = (   1.5805784  -0.9125490  -0.4184153), wk =   0.0156250
        k(   60) = (   0.0000000  -1.8250979  -0.3347326), wk =   0.0156250
        k(   61) = (  -1.5805784  -0.9125490  -0.1673663), wk =   0.0156250
        k(   62) = (  -3.1611569  -1.8250979  -0.0836836), wk =   0.0156250
        k(   63) = (   1.5805784   0.9125490  -0.3347317), wk =   0.0156250
        k(   64) = (   0.0000000   0.0000000  -0.2510490), wk =   0.0156250

                       cryst. coord.
        k(    1) = (   0.0000000   0.0000000   0.0000000), wk =   0.0156250
        k(    2) = (   0.0000000   0.0000000   0.2500000), wk =   0.0156250
        k(    3) = (   0.0000000  -0.0000000  -0.5000000), wk =   0.0156250
        k(    4) = (   0.0000000  -0.0000000  -0.2500000), wk =   0.0156250
        k(    5) = (   0.0000000   0.2500000   0.0000000), wk =   0.0156250
        k(    6) = (   0.0000000   0.2500000   0.2500000), wk =   0.0156250
        k(    7) = (   0.0000000   0.2500000  -0.5000000), wk =   0.0156250
        k(    8) = (   0.0000000   0.2500000  -0.2500000), wk =   0.0156250
        k(    9) = (   0.0000000  -0.5000000   0.0000000), wk =   0.0156250
        k(   10) = (   0.0000000  -0.5000000   0.2500000), wk =   0.0156250
        k(   11) = (   0.0000000  -0.5000000  -0.5000000), wk =   0.0156250
        k(   12) = (  -0.0000000  -0.5000000  -0.2500000), wk =   0.0156250
        k(   13) = (   0.0000000  -0.2500000   0.0000000), wk =   0.0156250
        k(   14) = (  -0.0000000  -0.2500000   0.2500000), wk =   0.0156250
        k(   15) = (   0.0000000  -0.2500000  -0.5000000), wk =   0.0156250
        k(   16) = (   0.0000000  -0.2500000  -0.2500000), wk =   0.0156250
        k(   17) = (   0.2500000   0.0000000   0.0000000), wk =   0.0156250
        k(   18) = (   0.2500000   0.0000000   0.2500000), wk =   0.0156250
        k(   19) = (   0.2500000  -0.0000000  -0.5000000), wk =   0.0156250
        k(   20) = (   0.2500000   0.0000000  -0.2500000), wk =   0.0156250
        k(   21) = (   0.2500000   0.2500000   0.0000000), wk =   0.0156250
        k(   22) = (   0.2500000   0.2500000   0.2500000), wk =   0.0156250
        k(   23) = (   0.2500000   0.2500000  -0.5000000), wk =   0.0156250
        k(   24) = (   0.2500000   0.2500000  -0.2500000), wk =   0.0156250
        k(   25) = (   0.2500000  -0.5000000   0.0000000), wk =   0.0156250
        k(   26) = (   0.2500000  -0.5000000   0.2500000), wk =   0.0156250
        k(   27) = (   0.2500000  -0.5000000  -0.5000000), wk =   0.0156250
        k(   28) = (   0.2500000  -0.5000000  -0.2500000), wk =   0.0156250
        k(   29) = (   0.2500000  -0.2500000  -0.0000000), wk =   0.0156250
        k(   30) = (   0.2500000  -0.2500000   0.2500000), wk =   0.0156250
        k(   31) = (   0.2500000  -0.2500000  -0.5000000), wk =   0.0156250
        k(   32) = (   0.2500000  -0.2500000  -0.2500000), wk =   0.0156250
        k(   33) = (  -0.5000000  -0.0000000   0.0000000), wk =   0.0156250
        k(   34) = (  -0.5000000  -0.0000000   0.2500000), wk =   0.0156250
        k(   35) = (  -0.5000000  -0.0000000  -0.5000000), wk =   0.0156250
        k(   36) = (  -0.5000000  -0.0000000  -0.2500000), wk =   0.0156250
        k(   37) = (  -0.5000000   0.2500000   0.0000000), wk =   0.0156250
        k(   38) = (  -0.5000000   0.2500000   0.2500000), wk =   0.0156250
        k(   39) = (  -0.5000000   0.2500000  -0.5000000), wk =   0.0156250
        k(   40) = (  -0.5000000   0.2500000  -0.2500000), wk =   0.0156250
        k(   41) = (  -0.5000000  -0.5000000   0.0000000), wk =   0.0156250
        k(   42) = (  -0.5000000  -0.5000000   0.2500000), wk =   0.0156250
        k(   43) = (  -0.5000000  -0.5000000  -0.5000000), wk =   0.0156250
        k(   44) = (  -0.5000000  -0.5000000  -0.2500000), wk =   0.0156250
        k(   45) = (  -0.5000000  -0.2500000   0.0000000), wk =   0.0156250
        k(   46) = (  -0.5000000  -0.2500000   0.2500000), wk =   0.0156250
        k(   47) = (  -0.5000000  -0.2500000  -0.5000000), wk =   0.0156250
        k(   48) = (  -0.5000000  -0.2500000  -0.2500000), wk =   0.0156250
        k(   49) = (  -0.2500000  -0.0000000   0.0000000), wk =   0.0156250
        k(   50) = (  -0.2500000   0.0000000   0.2500000), wk =   0.0156250
        k(   51) = (  -0.2500000  -0.0000000  -0.5000000), wk =   0.0156250
        k(   52) = (  -0.2500000  -0.0000000  -0.2500000), wk =   0.0156250
        k(   53) = (  -0.2500000   0.2500000   0.0000000), wk =   0.0156250
        k(   54) = (  -0.2500000   0.2500000   0.2500000), wk =   0.0156250
        k(   55) = (  -0.2500000   0.2500000  -0.5000000), wk =   0.0156250
        k(   56) = (  -0.2500000   0.2500000  -0.2500000), wk =   0.0156250
        k(   57) = (  -0.2500000  -0.5000000  -0.0000000), wk =   0.0156250
        k(   58) = (  -0.2500000  -0.5000000   0.2500000), wk =   0.0156250
        k(   59) = (  -0.2500000  -0.5000000  -0.5000000), wk =   0.0156250
        k(   60) = (  -0.2500000  -0.5000000  -0.2500000), wk =   0.0156250
        k(   61) = (  -0.2500000  -0.2500000   0.0000000), wk =   0.0156250
        k(   62) = (  -0.2500000  -0.2500000   0.2500000), wk =   0.0156250
        k(   63) = (  -0.2500000  -0.2500000  -0.5000000), wk =   0.0156250
        k(   64) = (  -0.2500000  -0.2500000  -0.2500000), wk =   0.0156250

     Dense  grid:   187971 G-vectors     FFT dimensions: ( 256, 256, 256)

     Dynamical RAM for                 wfc:       2.24 MB

     Dynamical RAM for     wfc (w. buffer):     288.96 MB

     Dynamical RAM for             U proj.:       0.11 MB

     Dynamical RAM for  U proj. (w. buff.):      14.45 MB

     Dynamical RAM for           str. fact:       0.36 MB

     Dynamical RAM for           local pot:       0.00 MB

     Dynamical RAM for          nlocal pot:       2.82 MB

     Dynamical RAM for                qrad:       4.98 MB

     Dynamical RAM for          rho,v,vnew:      24.54 MB

     Dynamical RAM for               rhoin:       8.18 MB

     Dynamical RAM for            rho*nmix:       2.87 MB

     Dynamical RAM for           G-vectors:       0.38 MB

     Dynamical RAM for          h,s,v(r/c):       1.83 MB

     Dynamical RAM for          <psi|beta>:       0.77 MB

     Dynamical RAM for                 psi:       4.48 MB

     Dynamical RAM for                hpsi:       4.48 MB

     Dynamical RAM for                spsi:       4.48 MB

     Dynamical RAM for      wfcinit/wfcrot:       5.40 MB

     Dynamical RAM for           addusdens:      17.48 MB

     Estimated static dynamical RAM per process >     369.11 MB

     Estimated max dynamical RAM per process >     389.46 MB

     Estimated total dynamical RAM >      12.17 GB

     Check: negative core charge=   -0.000015
     Generating pointlists ...
     new r_m :   0.0448 (alat units)  2.3181 (a.u.) for type    1
     new r_m :   0.0448 (alat units)  2.3181 (a.u.) for type    2
     new r_m :   0.0456 (alat units)  2.3625 (a.u.) for type    3
     new r_m :   0.0448 (alat units)  2.3181 (a.u.) for type    4

     Initial potential from superposition of free atoms

     starting charge     137.9940, renormalised to     138.0000

     HUBBARD ENERGY =    0.0000  (Ry)

     STARTING HUBBARD OCCUPATIONS:

     =================== HUBBARD OCCUPATIONS ===================
     ------------------------ ATOM    1 ------------------------
     Tr[ns(  1)] (up, down, total) =   5.00000  0.00000  5.00000
     Atomic magnetic moment for atom   1 =   5.00000
     SPIN  1
     eigenvalues:
       1.000  1.000  1.000  1.000  1.000
     eigenvectors (columns):
       1.000  0.000  0.000  0.000  0.000
       0.000  1.000  0.000  0.000  0.000
       0.000  0.000  1.000  0.000  0.000
       0.000  0.000  0.000  1.000  0.000
       0.000  0.000  0.000  0.000  1.000
     occupation matrix ns (before diag.):
       1.000  0.000  0.000  0.000  0.000
       0.000  1.000  0.000  0.000  0.000
       0.000  0.000  1.000  0.000  0.000
       0.000  0.000  0.000  1.000  0.000
       0.000  0.000  0.000  0.000  1.000
     SPIN  2
     eigenvalues:
       0.000  0.000  0.000  0.000  0.000
     eigenvectors (columns):
       1.000  0.000  0.000  0.000  0.000
       0.000  1.000  0.000  0.000  0.000
       0.000  0.000  1.000  0.000  0.000
       0.000  0.000  0.000  1.000  0.000
       0.000  0.000  0.000  0.000  1.000
     occupation matrix ns (before diag.):
       0.000  0.000  0.000  0.000  0.000
       0.000  0.000  0.000  0.000  0.000
       0.000  0.000  0.000  0.000  0.000
       0.000  0.000  0.000  0.000  0.000
       0.000  0.000  0.000  0.000  0.000
     ------------------------ ATOM    2 ------------------------
     Tr[ns(  2)] (up, down, total) =   0.00000  5.00000  5.00000
     Atomic magnetic moment for atom   2 =  -5.00000
     SPIN  1
     eigenvalues:
       0.000  0.000  0.000  0.000  0.000
     eigenvectors (columns):
       1.000  0.000  0.000  0.000  0.000
       0.000  1.000  0.000  0.000  0.000
       0.000  0.000  1.000  0.000  0.000
       0.000  0.000  0.000  1.000  0.000
       0.000  0.000  0.000  0.000  1.000
     occupation matrix ns (before diag.):
       0.000  0.000  0.000  0.000  0.000
       0.000  0.000  0.000  0.000  0.000
       0.000  0.000  0.000  0.000  0.000
       0.000  0.000  0.000  0.000  0.000
       0.000  0.000  0.000  0.000  0.000
     SPIN  2
     eigenvalues:
       1.000  1.000  1.000  1.000  1.000
     eigenvectors (columns):
       1.000  0.000  0.000  0.000  0.000
       0.000  1.000  0.000  0.000  0.000
       0.000  0.000  1.000  0.000  0.000
       0.000  0.000  0.000  1.000  0.000
       0.000  0.000  0.000  0.000  1.000
     occupation matrix ns (before diag.):
       1.000  0.000  0.000  0.000  0.000
       0.000  1.000  0.000  0.000  0.000
       0.000  0.000  1.000  0.000  0.000
       0.000  0.000  0.000  1.000  0.000
       0.000  0.000  0.000  0.000  1.000

     Number of occupied Hubbard levels =   10.0000

     Atomic wfc used for Hubbard projectors are orthogonalized

     Starting wfcs are   88 randomized atomic wfcs +  112 random wfcs
     Checking if some PAW data can be deallocated... 
       PAW data deallocated on   29 nodes for type:  1
       PAW data deallocated on   29 nodes for type:  2
       PAW data deallocated on   22 nodes for type:  3
       PAW data deallocated on   16 nodes for type:  4

     total cpu time spent up to now is     1803.7 secs

     Self-consistent Calculation

     iteration #  1     ecut=    60.00 Ry     beta= 0.40
     Davidson diagonalization with overlap

---- Real-time Memory Report at c_bands before calling an iterative solver
           488 MiB given to the printing process from OS
             0 MiB allocation reported by mallinfo(arena+hblkhd)
        239736 MiB available memory on the node where the printing process lives
------------------
     ethr =  1.00E-02,  avg # of iterations =  7.4

     =================== HUBBARD OCCUPATIONS ===================
     ------------------------ ATOM    1 ------------------------
     Tr[ns(  1)] (up, down, total) =   4.98418  0.28008  5.26425
     Atomic magnetic moment for atom   1 =   4.70410
     SPIN  1
     eigenvalues:
       0.994  0.994  0.999  0.999  0.999
     eigenvectors (columns):
       0.003  0.002 -0.013 -0.041  0.999
       0.265  0.692  0.530  0.413  0.021
       0.693 -0.265  0.412 -0.528 -0.018
      -0.625  0.242  0.454 -0.586 -0.017
      -0.242 -0.627  0.585  0.453  0.028
     occupation matrix ns (before diag.):
       0.999 -0.000 -0.000  0.000  0.000
      -0.000  0.996 -0.000 -0.000  0.002
      -0.000 -0.000  0.996  0.002  0.000
       0.000 -0.000  0.002  0.997 -0.000
       0.000  0.002  0.000 -0.000  0.997
     SPIN  2
     eigenvalues:
       0.020  0.021  0.021  0.109  0.110
     eigenvectors (columns):
      -0.997 -0.057  0.051 -0.001  0.001
       0.045 -0.519  0.287 -0.273 -0.756
      -0.009 -0.291 -0.518 -0.756  0.275
      -0.015 -0.389 -0.704  0.559 -0.203
       0.060 -0.701  0.388  0.206  0.558
     occupation matrix ns (before diag.):
       0.020  0.000  0.000 -0.000  0.000
       0.000  0.078 -0.000  0.000 -0.043
       0.000 -0.000  0.078 -0.042 -0.000
      -0.000  0.000 -0.042  0.052  0.000
       0.000 -0.043 -0.000  0.000  0.052
     ------------------------ ATOM    2 ------------------------
     Tr[ns(  2)] (up, down, total) =   0.27957  4.98419  5.26377
     Atomic magnetic moment for atom   2 =  -4.70462
     SPIN  1
     eigenvalues:
       0.020  0.021  0.021  0.109  0.110
     eigenvectors (columns):
       0.998  0.011  0.054  0.000  0.000
       0.032 -0.181 -0.565  0.658  0.463
       0.004  0.568 -0.185  0.460 -0.657
       0.005  0.764 -0.243 -0.343  0.489
       0.045 -0.246 -0.765 -0.488 -0.339
     occupation matrix ns (before diag.):
       0.020  0.000 -0.000 -0.000 -0.000
       0.000  0.078 -0.000  0.000 -0.042
      -0.000 -0.000  0.078 -0.042 -0.000
      -0.000  0.000 -0.042  0.052  0.000
      -0.000 -0.042 -0.000  0.000  0.052
     SPIN  2
     eigenvalues:
       0.994  0.994  0.999  0.999  0.999
     eigenvectors (columns):
       0.002 -0.001  0.035 -0.022  0.999
       0.273  0.690 -0.044  0.669  0.016
      -0.691  0.270  0.669  0.047 -0.020
       0.624 -0.245  0.740  0.047 -0.027
      -0.242 -0.625 -0.049  0.740  0.018
     occupation matrix ns (before diag.):
       0.999  0.000  0.000 -0.000  0.000
       0.000  0.996  0.000 -0.000  0.002
       0.000  0.000  0.996  0.002  0.000
      -0.000 -0.000  0.002  0.997 -0.000
       0.000  0.002  0.000 -0.000  0.997

     Number of occupied Hubbard levels =   10.5280

     Threshold (ethr) on eigenvalues was too large:
     Diagonalizing with lowered threshold

     Davidson diagonalization with overlap

---- Real-time Memory Report at c_bands before calling an iterative solver
           610 MiB given to the printing process from OS
             0 MiB allocation reported by mallinfo(arena+hblkhd)
        237768 MiB available memory on the node where the printing process lives
------------------
     ethr =  2.72E-04,  avg # of iterations =  6.3

     =================== HUBBARD OCCUPATIONS ===================
     ------------------------ ATOM    1 ------------------------
     Tr[ns(  1)] (up, down, total) =   4.98394  0.28011  5.26405
     Atomic magnetic moment for atom   1 =   4.70383
     SPIN  1
     eigenvalues:
       0.994  0.994  0.999  0.999  0.999
     eigenvectors (columns):
       0.002  0.002 -0.011  0.035  0.999
       0.276  0.687  0.468 -0.482  0.020
       0.689 -0.276  0.481  0.467 -0.012
      -0.622  0.251  0.531  0.518 -0.011
      -0.252 -0.623  0.517 -0.530  0.026
     occupation matrix ns (before diag.):
       0.999 -0.000 -0.000  0.000  0.000
      -0.000  0.996 -0.000 -0.000  0.002
      -0.000 -0.000  0.996  0.002  0.000
       0.000 -0.000  0.002  0.997 -0.000
       0.000  0.002  0.000 -0.000  0.997
     SPIN  2
     eigenvalues:
       0.020  0.021  0.021  0.109  0.110
     eigenvectors (columns):
      -0.997 -0.057  0.051 -0.001  0.001
       0.044 -0.519  0.288 -0.274 -0.755
      -0.009 -0.291 -0.518 -0.755  0.276
      -0.015 -0.389 -0.704  0.558 -0.204
       0.060 -0.701  0.389  0.207  0.558
     occupation matrix ns (before diag.):
       0.020  0.000  0.000 -0.000  0.000
       0.000  0.078 -0.000  0.000 -0.043
       0.000 -0.000  0.078 -0.042 -0.000
      -0.000  0.000 -0.042  0.052  0.000
       0.000 -0.043 -0.000  0.000  0.052
     ------------------------ ATOM    2 ------------------------
     Tr[ns(  2)] (up, down, total) =   0.27961  4.98396  5.26357
     Atomic magnetic moment for atom   2 =  -4.70435
     SPIN  1
     eigenvalues:
       0.020  0.021  0.021  0.109  0.110
     eigenvectors (columns):
       0.998  0.010  0.054  0.000  0.000
       0.032 -0.178 -0.566  0.659  0.462
       0.004  0.569 -0.182  0.459 -0.658
       0.005  0.766 -0.239 -0.342  0.489
       0.044 -0.242 -0.766 -0.488 -0.338
     occupation matrix ns (before diag.):
       0.020  0.000 -0.000 -0.000 -0.000
       0.000  0.078 -0.000  0.000 -0.042
      -0.000 -0.000  0.078 -0.042 -0.000
      -0.000  0.000 -0.042  0.052  0.000
      -0.000 -0.042 -0.000  0.000  0.052
     SPIN  2
     eigenvalues:
       0.994  0.994  0.999  0.999  0.999
     eigenvectors (columns):
       0.002 -0.001  0.020 -0.009  1.000
       0.310  0.674 -0.011  0.670  0.006
      -0.675  0.308  0.670  0.013 -0.011
       0.610 -0.279  0.742  0.010 -0.016
      -0.276 -0.611 -0.013  0.742  0.007
     occupation matrix ns (before diag.):
       0.999  0.000  0.000 -0.000  0.000
       0.000  0.996  0.000 -0.000  0.002
       0.000  0.000  0.996  0.002  0.000
      -0.000 -0.000  0.002  0.997 -0.000
       0.000  0.002  0.000 -0.000  0.997

     Number of occupied Hubbard levels =   10.5276

     HUBBARD ENERGY =    0.0795  (Ry)

     total cpu time spent up to now is    29824.8 secs

     total energy              =   -7099.62022838 Ry
     estimated scf accuracy    <       0.37630472 Ry

     total magnetization       =    -0.00 Bohr mag/cell
     absolute magnetization    =    10.39 Bohr mag/cell

     iteration #  2     ecut=    60.00 Ry     beta= 0.40
     Davidson diagonalization with overlap

---- Real-time Memory Report at c_bands before calling an iterative solver
           707 MiB given to the printing process from OS
             0 MiB allocation reported by mallinfo(arena+hblkhd)
        235903 MiB available memory on the node where the printing process lives
------------------
     ethr =  2.73E-04,  avg # of iterations =  3.2

     =================== HUBBARD OCCUPATIONS ===================
     ------------------------ ATOM    1 ------------------------
     Tr[ns(  1)] (up, down, total) =   4.96090  0.19708  5.15797
     Atomic magnetic moment for atom   1 =   4.76382
     SPIN  1
     eigenvalues:
       0.985  0.985  0.997  0.997  0.997
     eigenvectors (columns):
       0.002  0.002  1.000 -0.006 -0.017
       0.307  0.699 -0.012 -0.461 -0.453
       0.699 -0.307  0.004 -0.452  0.461
      -0.590  0.261  0.007 -0.534  0.547
      -0.261 -0.591 -0.011 -0.546 -0.533
     occupation matrix ns (before diag.):
       0.997 -0.000 -0.000  0.000  0.000
      -0.000  0.990 -0.000 -0.000  0.006
      -0.000 -0.000  0.990  0.006  0.000
       0.000 -0.000  0.006  0.992 -0.000
       0.000  0.006  0.000 -0.000  0.992
     SPIN  2
     eigenvalues:
       0.013  0.014  0.014  0.078  0.078
     eigenvectors (columns):
      -1.000  0.011 -0.009 -0.001  0.000
       0.008  0.529 -0.236 -0.267 -0.770
      -0.001  0.237  0.528 -0.770  0.268
      -0.003  0.332  0.745  0.547 -0.190
       0.011  0.744 -0.332  0.192  0.547
     occupation matrix ns (before diag.):
       0.013  0.000  0.000 -0.000  0.000
       0.000  0.057 -0.000  0.000 -0.030
       0.000 -0.000  0.057 -0.030 -0.000
      -0.000  0.000 -0.030  0.035  0.000
       0.000 -0.030 -0.000  0.000  0.036
     ------------------------ ATOM    2 ------------------------
     Tr[ns(  2)] (up, down, total) =   0.19458  4.96016  5.15473
     Atomic magnetic moment for atom   2 =  -4.76558
     SPIN  1
     eigenvalues:
       0.013  0.014  0.014  0.077  0.077
     eigenvectors (columns):
       1.000  0.003  0.012  0.000  0.000
       0.007 -0.238 -0.527  0.641  0.505
       0.001  0.528 -0.240  0.504 -0.640
       0.002  0.743 -0.334 -0.359  0.456
       0.010 -0.336 -0.744 -0.455 -0.356
     occupation matrix ns (before diag.):
       0.013  0.000 -0.000 -0.000 -0.000
       0.000  0.056 -0.000  0.000 -0.030
      -0.000 -0.000  0.056 -0.030  0.000
      -0.000  0.000 -0.030  0.035  0.000
      -0.000 -0.030  0.000  0.000  0.035
     SPIN  2
     eigenvalues:
       0.984  0.984  0.997  0.997  0.997
     eigenvectors (columns):
      -0.002  0.001  1.000 -0.013  0.017
      -0.346 -0.682 -0.011 -0.046  0.643
       0.682 -0.345  0.009  0.643  0.048
      -0.575  0.291  0.008  0.762  0.053
       0.289  0.576 -0.013 -0.055  0.762
     occupation matrix ns (before diag.):
       0.997  0.000  0.000 -0.000  0.000
       0.000  0.990  0.000 -0.000  0.006
       0.000  0.000  0.990  0.006  0.000
      -0.000 -0.000  0.006  0.992 -0.000
       0.000  0.006  0.000 -0.000  0.992

     Number of occupied Hubbard levels =   10.3127

     HUBBARD ENERGY =    0.0777  (Ry)

     total cpu time spent up to now is    40694.6 secs

     total energy              =   -7099.56099897 Ry
     estimated scf accuracy    <       1.04416601 Ry

     total magnetization       =     0.00 Bohr mag/cell
     absolute magnetization    =    10.39 Bohr mag/cell

     iteration #  3     ecut=    60.00 Ry     beta= 0.40
     Davidson diagonalization with overlap

---- Real-time Memory Report at c_bands before calling an iterative solver
           707 MiB given to the printing process from OS
             0 MiB allocation reported by mallinfo(arena+hblkhd)
        235790 MiB available memory on the node where the printing process lives
------------------
     ethr =  2.73E-04,  avg # of iterations =  2.8

     =================== HUBBARD OCCUPATIONS ===================
     ------------------------ ATOM    1 ------------------------
     Tr[ns(  1)] (up, down, total) =   4.98167  0.32042  5.30209
     Atomic magnetic moment for atom   1 =   4.66125
     SPIN  1
     eigenvalues:
       0.993  0.993  0.998  0.998  0.998
     eigenvectors (columns):
       0.002  0.001  0.005  0.023  1.000
       0.289  0.681 -0.482 -0.470  0.012
       0.682 -0.289 -0.470  0.481 -0.010
      -0.618  0.264 -0.516  0.531 -0.009
      -0.264 -0.619 -0.530 -0.515  0.016
     occupation matrix ns (before diag.):
       0.998 -0.000 -0.000  0.000  0.000
      -0.000  0.996 -0.000 -0.000  0.003
      -0.000 -0.000  0.996  0.003  0.000
       0.000 -0.000  0.003  0.996 -0.000
       0.000  0.003  0.000 -0.000  0.996
     SPIN  2
     eigenvalues:
       0.020  0.021  0.021  0.130  0.130
     eigenvectors (columns):
      -0.999 -0.032  0.024 -0.001  0.000
       0.023 -0.519  0.282 -0.319 -0.740
      -0.002 -0.284 -0.518 -0.740  0.321
      -0.005 -0.384 -0.709  0.542 -0.235
       0.032 -0.708  0.385  0.237  0.542
     occupation matrix ns (before diag.):
       0.020  0.000  0.000 -0.000  0.000
       0.000  0.092 -0.000  0.000 -0.052
       0.000 -0.000  0.092 -0.052 -0.000
      -0.000  0.000 -0.052  0.059  0.000
       0.000 -0.052 -0.000  0.000  0.059
     ------------------------ ATOM    2 ------------------------
     Tr[ns(  2)] (up, down, total) =   0.32605  4.98220  5.30826
     Atomic magnetic moment for atom   2 =  -4.65615
     SPIN  1
     eigenvalues:
       0.020  0.021  0.021  0.132  0.132
     eigenvectors (columns):
       0.999  0.007  0.037  0.000  0.000
       0.022 -0.161 -0.568  0.665  0.456
       0.002  0.570 -0.164  0.454 -0.665
       0.003  0.775 -0.219 -0.335  0.490
       0.031 -0.221 -0.775 -0.489 -0.332
     occupation matrix ns (before diag.):
       0.020  0.000 -0.000  0.000 -0.000
       0.000  0.093 -0.000  0.000 -0.053
      -0.000 -0.000  0.093 -0.053  0.000
       0.000  0.000 -0.053  0.060  0.000
      -0.000 -0.053  0.000  0.000  0.060
     SPIN  2
     eigenvalues:
       0.993  0.994  0.998  0.998  0.998
     eigenvectors (columns):
       0.002 -0.001  0.017 -0.019  1.000
       0.314  0.669 -0.070  0.670  0.014
      -0.669  0.312  0.670  0.072 -0.009
       0.611 -0.286  0.735  0.076 -0.012
      -0.284 -0.611 -0.077  0.735  0.015
     occupation matrix ns (before diag.):
       0.998  0.000  0.000 -0.000  0.000
       0.000  0.996  0.000 -0.000  0.002
       0.000  0.000  0.996  0.002  0.000
      -0.000 -0.000  0.002  0.996 -0.000
       0.000  0.002  0.000 -0.000  0.996

     Number of occupied Hubbard levels =   10.6103

     HUBBARD ENERGY =    0.0787  (Ry)

     total cpu time spent up to now is    51367.7 secs

     total energy              =   -7099.68722901 Ry
     estimated scf accuracy    <       0.67738403 Ry

     total magnetization       =     0.00 Bohr mag/cell
     absolute magnetization    =    10.18 Bohr mag/cell

     iteration #  4     ecut=    60.00 Ry     beta= 0.40
     Davidson diagonalization with overlap

---- Real-time Memory Report at c_bands before calling an iterative solver
           707 MiB given to the printing process from OS
             0 MiB allocation reported by mallinfo(arena+hblkhd)
        235742 MiB available memory on the node where the printing process lives
------------------
     ethr =  2.73E-04,  avg # of iterations =  1.6

     =================== HUBBARD OCCUPATIONS ===================
     ------------------------ ATOM    1 ------------------------
     Tr[ns(  1)] (up, down, total) =   4.97836  0.29329  5.27164
     Atomic magnetic moment for atom   1 =   4.68507
     SPIN  1
     eigenvalues:
       0.992  0.992  0.998  0.998  0.998
     eigenvectors (columns):
       0.001  0.001 -0.006  0.037  0.999
       0.317  0.677  0.467 -0.472  0.019
       0.678 -0.317  0.472  0.466 -0.015
      -0.601  0.282  0.532  0.526 -0.016
      -0.282 -0.601  0.526 -0.531  0.024
     occupation matrix ns (before diag.):
       0.998 -0.000 -0.000  0.000  0.000
      -0.000  0.995 -0.000 -0.000  0.003
      -0.000 -0.000  0.995  0.003  0.000
       0.000 -0.000  0.003  0.995 -0.000
       0.000  0.003  0.000 -0.000  0.995
     SPIN  2
     eigenvalues:
       0.018  0.019  0.019  0.118  0.118
     eigenvectors (columns):
      -1.000  0.013 -0.009 -0.001  0.000
       0.009  0.525 -0.269 -0.312 -0.745
      -0.001  0.270  0.524 -0.745  0.313
      -0.002  0.368  0.719  0.544 -0.228
       0.012  0.718 -0.368  0.230  0.544
     occupation matrix ns (before diag.):
       0.018  0.000  0.000 -0.000  0.000
       0.000  0.084 -0.000  0.000 -0.047
       0.000 -0.000  0.084 -0.047 -0.000
      -0.000  0.000 -0.047  0.054  0.000
       0.000 -0.047 -0.000  0.000  0.054
     ------------------------ ATOM    2 ------------------------
     Tr[ns(  2)] (up, down, total) =   0.28615  4.97748  5.26363
     Atomic magnetic moment for atom   2 =  -4.69133
     SPIN  1
     eigenvalues:
       0.018  0.019  0.019  0.115  0.115
     eigenvectors (columns):
       1.000  0.003  0.013  0.000  0.000
       0.007 -0.187 -0.558  0.658  0.470
       0.001  0.559 -0.189  0.468 -0.657
       0.001  0.766 -0.256 -0.343  0.481
       0.010 -0.257 -0.766 -0.480 -0.341
     occupation matrix ns (before diag.):
       0.018  0.000 -0.000  0.000 -0.000
       0.000  0.082 -0.000  0.000 -0.046
      -0.000 -0.000  0.082 -0.046  0.000
       0.000  0.000 -0.046  0.053  0.000
      -0.000 -0.046  0.000  0.000  0.052
     SPIN  2
     eigenvalues:
       0.991  0.991  0.998  0.998  0.998
     eigenvectors (columns):
       0.001 -0.001  0.046 -0.065  0.997
       0.340  0.668 -0.061  0.657  0.046
      -0.669  0.339  0.658  0.064 -0.026
       0.590 -0.300  0.746  0.070 -0.031
      -0.298 -0.590 -0.069  0.745  0.052
     occupation matrix ns (before diag.):
       0.998  0.000  0.000 -0.000  0.000
       0.000  0.994  0.000 -0.000  0.003
       0.000  0.000  0.994  0.003  0.000
      -0.000 -0.000  0.003  0.995 -0.000
       0.000  0.003  0.000 -0.000  0.995

     Number of occupied Hubbard levels =   10.5353

     HUBBARD ENERGY =    0.0802  (Ry)

     total cpu time spent up to now is    61677.5 secs

     total energy              =   -7099.73761693 Ry
     estimated scf accuracy    <       0.03363990 Ry

     total magnetization       =     0.00 Bohr mag/cell
     absolute magnetization    =    10.17 Bohr mag/cell

     iteration #  5     ecut=    60.00 Ry     beta= 0.40
     Davidson diagonalization with overlap

---- Real-time Memory Report at c_bands before calling an iterative solver
           707 MiB given to the printing process from OS
             0 MiB allocation reported by mallinfo(arena+hblkhd)
        235827 MiB available memory on the node where the printing process lives
------------------
     c_bands:  1 eigenvalues not converged
     c_bands:  1 eigenvalues not converged
     ethr =  2.44E-05,  avg # of iterations = 12.9

     =================== HUBBARD OCCUPATIONS ===================
     ------------------------ ATOM    1 ------------------------
     Tr[ns(  1)] (up, down, total) =   4.97308  0.26427  5.23735
     Atomic magnetic moment for atom   1 =   4.70880
     SPIN  1
     eigenvalues:
       0.990  0.990  0.998  0.998  0.998
     eigenvectors (columns):
       0.001  0.001  0.999  0.003 -0.043
       0.284  0.701 -0.022  0.458 -0.465
       0.702 -0.284  0.018  0.466  0.458
      -0.605  0.246  0.022  0.539  0.531
      -0.246 -0.606 -0.024  0.531 -0.538
     occupation matrix ns (before diag.):
       0.998 -0.000 -0.000  0.000  0.000
      -0.000  0.993 -0.000 -0.000  0.004
      -0.000 -0.000  0.993  0.004  0.000
       0.000 -0.000  0.004  0.994 -0.000
       0.000  0.004  0.000 -0.000  0.994
     SPIN  2
     eigenvalues:
       0.016  0.018  0.018  0.106  0.106
     eigenvectors (columns):
      -1.000  0.005 -0.003 -0.000  0.000
       0.004  0.522 -0.273 -0.281 -0.758
      -0.000  0.273  0.521 -0.758  0.282
      -0.001  0.374  0.717  0.552 -0.205
       0.005  0.716 -0.374  0.206  0.552
     occupation matrix ns (before diag.):
       0.016  0.000  0.000 -0.000  0.000
       0.000  0.076 -0.000  0.000 -0.042
       0.000 -0.000  0.076 -0.042 -0.000
      -0.000  0.000 -0.042  0.048  0.000
       0.000 -0.042 -0.000  0.000  0.048
     ------------------------ ATOM    2 ------------------------
     Tr[ns(  2)] (up, down, total) =   0.29583  4.97797  5.27380
     Atomic magnetic moment for atom   2 =  -4.68215
     SPIN  1
     eigenvalues:
       0.018  0.019  0.019  0.120  0.120
     eigenvectors (columns):
       1.000  0.002  0.010  0.000  0.000
       0.006 -0.180 -0.563  0.652  0.475
       0.001  0.564 -0.181  0.474 -0.652
       0.001  0.768 -0.245 -0.348  0.479
       0.008 -0.245 -0.769 -0.478 -0.347
     occupation matrix ns (before diag.):
       0.018  0.000 -0.000  0.000 -0.000
       0.000  0.085 -0.000  0.000 -0.048
      -0.000 -0.000  0.085 -0.048  0.000
       0.000  0.000 -0.048  0.054  0.000
      -0.000 -0.048  0.000  0.000  0.054
     SPIN  2
     eigenvalues:
       0.992  0.992  0.998  0.998  0.998
     eigenvectors (columns):
       0.001 -0.000  0.016 -0.019  1.000
       0.266  0.700 -0.086  0.657  0.014
      -0.700  0.265  0.657  0.087 -0.008
       0.620 -0.234  0.742  0.097 -0.010
      -0.234 -0.620 -0.097  0.742  0.016
     occupation matrix ns (before diag.):
       0.998  0.000  0.000 -0.000  0.000
       0.000  0.995  0.000 -0.000  0.003
       0.000  0.000  0.995  0.003  0.000
      -0.000 -0.000  0.003  0.995 -0.000
       0.000  0.003  0.000 -0.000  0.995

     Number of occupied Hubbard levels =   10.5112

     HUBBARD ENERGY =    0.0810  (Ry)

     total cpu time spent up to now is    73350.5 secs

     total energy              =   -7099.73090822 Ry
     estimated scf accuracy    <       0.31291338 Ry

     total magnetization       =     0.00 Bohr mag/cell
     absolute magnetization    =    10.17 Bohr mag/cell

     iteration #  6     ecut=    60.00 Ry     beta= 0.40
     Davidson diagonalization with overlap

---- Real-time Memory Report at c_bands before calling an iterative solver
           707 MiB given to the printing process from OS
             0 MiB allocation reported by mallinfo(arena+hblkhd)
        235360 MiB available memory on the node where the printing process lives
------------------
     c_bands:  1 eigenvalues not converged
     c_bands:  1 eigenvalues not converged
     c_bands:  1 eigenvalues not converged
     c_bands:  1 eigenvalues not converged
     c_bands:  1 eigenvalues not converged
     c_bands:  1 eigenvalues not converged
     c_bands:  1 eigenvalues not converged
     c_bands:  1 eigenvalues not converged
     c_bands:  1 eigenvalues not converged
     c_bands:  1 eigenvalues not converged
     c_bands:  1 eigenvalues not converged
     c_bands:  1 eigenvalues not converged
     c_bands:  1 eigenvalues not converged
     c_bands:  1 eigenvalues not converged
     c_bands:  1 eigenvalues not converged
     c_bands:  1 eigenvalues not converged
     c_bands:  1 eigenvalues not converged
     c_bands:  1 eigenvalues not converged
     c_bands:  1 eigenvalues not converged
     c_bands:  1 eigenvalues not converged
     c_bands:  1 eigenvalues not converged
     c_bands:  1 eigenvalues not converged
     c_bands:  1 eigenvalues not converged
     c_bands:  1 eigenvalues not converged
     c_bands:  1 eigenvalues not converged
     c_bands:  1 eigenvalues not converged
     c_bands:  1 eigenvalues not converged
     ethr =  2.44E-05,  avg # of iterations = 12.5

     =================== HUBBARD OCCUPATIONS ===================
     ------------------------ ATOM    1 ------------------------
     Tr[ns(  1)] (up, down, total) =   4.97607  0.27799  5.25405
     Atomic magnetic moment for atom   1 =   4.69808
     SPIN  1
     eigenvalues:
       0.991  0.991  0.998  0.998  0.998
     eigenvectors (columns):
       0.001  0.000  0.007  0.023  1.000
       0.336  0.671  0.439 -0.494  0.008
       0.671 -0.336  0.494  0.438 -0.014
      -0.591  0.296  0.561  0.498 -0.015
      -0.297 -0.591  0.498 -0.561  0.010
     occupation matrix ns (before diag.):
       0.998 -0.000 -0.000  0.000  0.000
      -0.000  0.994 -0.000 -0.000  0.004
      -0.000 -0.000  0.994  0.004  0.000
       0.000 -0.000  0.004  0.995 -0.000
       0.000  0.004  0.000 -0.000  0.995
     SPIN  2
     eigenvalues:
       0.017  0.018  0.018  0.112  0.113
     eigenvectors (columns):
      -1.000  0.004 -0.002 -0.000  0.000
       0.003  0.522 -0.273 -0.300 -0.751
       0.000  0.274  0.521 -0.751  0.300
      -0.000  0.375  0.716  0.546 -0.219
       0.004  0.716 -0.375  0.219  0.546
     occupation matrix ns (before diag.):
       0.017  0.000  0.000 -0.000  0.000
       0.000  0.080 -0.000  0.000 -0.045
       0.000 -0.000  0.080 -0.045 -0.000
      -0.000  0.000 -0.045  0.051  0.000
       0.000 -0.045 -0.000  0.000  0.051
     ------------------------ ATOM    2 ------------------------
     Tr[ns(  2)] (up, down, total) =   0.27559  4.97575  5.25134
     Atomic magnetic moment for atom   2 =  -4.70016
     SPIN  1
     eigenvalues:
       0.017  0.018  0.018  0.111  0.112
     eigenvectors (columns):
       1.000  0.001  0.005  0.000  0.000
       0.003 -0.200 -0.553  0.646  0.486
       0.000  0.554 -0.201  0.486 -0.646
       0.001  0.760 -0.274 -0.354  0.471
       0.004 -0.275 -0.761 -0.471 -0.353
     occupation matrix ns (before diag.):
       0.017  0.000 -0.000  0.000 -0.000
       0.000  0.079 -0.000  0.000 -0.044
      -0.000 -0.000  0.079 -0.044  0.000
       0.000  0.000 -0.044  0.050  0.000
      -0.000 -0.044  0.000  0.000  0.050
     SPIN  2
     eigenvalues:
       0.991  0.991  0.998  0.998  0.998
     eigenvectors (columns):
       0.000 -0.000  0.035 -0.050  0.998
       0.326  0.677 -0.068  0.656  0.035
      -0.677  0.325  0.656  0.070 -0.019
       0.595 -0.286  0.747  0.078 -0.022
      -0.286 -0.595 -0.077  0.746  0.040
     occupation matrix ns (before diag.):
       0.998  0.000  0.000 -0.000  0.000
       0.000  0.994  0.000 -0.000  0.004
       0.000  0.000  0.994  0.004  0.000
      -0.000 -0.000  0.004  0.995 -0.000
       0.000  0.004  0.000 -0.000  0.995

     Number of occupied Hubbard levels =   10.5054

     HUBBARD ENERGY =    0.0813  (Ry)

     total cpu time spent up to now is    84912.1 secs

     total energy              =   -7099.74970054 Ry
     estimated scf accuracy    <       0.00390634 Ry

     total magnetization       =    -0.00 Bohr mag/cell
     absolute magnetization    =    10.14 Bohr mag/cell

     iteration #  7     ecut=    60.00 Ry     beta= 0.40
     Davidson diagonalization with overlap

---- Real-time Memory Report at c_bands before calling an iterative solver
           707 MiB given to the printing process from OS
             0 MiB allocation reported by mallinfo(arena+hblkhd)
        235219 MiB available memory on the node where the printing process lives
------------------
     c_bands:  1 eigenvalues not converged
     ethr =  2.83E-06,  avg # of iterations = 12.0

     =================== HUBBARD OCCUPATIONS ===================
     ------------------------ ATOM    1 ------------------------
     Tr[ns(  1)] (up, down, total) =   4.97700  0.28647  5.26347
     Atomic magnetic moment for atom   1 =   4.69053
     SPIN  1
     eigenvalues:
       0.991  0.991  0.998  0.998  0.998
     eigenvectors (columns):
      -0.000 -0.000 -0.008 -0.000  1.000
      -0.443 -0.607 -0.327  0.573 -0.003
      -0.607  0.443 -0.573 -0.327 -0.005
       0.533 -0.389 -0.653 -0.372 -0.005
       0.389  0.533 -0.372  0.653 -0.003
     occupation matrix ns (before diag.):
       0.998 -0.000 -0.000  0.000  0.000
      -0.000  0.994  0.000 -0.000  0.004
      -0.000  0.000  0.994  0.004  0.000
       0.000 -0.000  0.004  0.995 -0.000
       0.000  0.004  0.000 -0.000  0.995
     SPIN  2
     eigenvalues:
       0.017  0.018  0.018  0.116  0.116
     eigenvectors (columns):
      -1.000  0.001 -0.000 -0.000  0.000
       0.000  0.505 -0.302 -0.261 -0.765
       0.000  0.302  0.505 -0.765  0.261
       0.000  0.415  0.694  0.557 -0.190
       0.000  0.694 -0.415  0.190  0.557
     occupation matrix ns (before diag.):
       0.017  0.000  0.000 -0.000 -0.000
       0.000  0.082 -0.000  0.000 -0.047
       0.000 -0.000  0.082 -0.047 -0.000
      -0.000  0.000 -0.047  0.052  0.000
      -0.000 -0.047 -0.000  0.000  0.052
     ------------------------ ATOM    2 ------------------------
     Tr[ns(  2)] (up, down, total) =   0.28494  4.97676  5.26171
     Atomic magnetic moment for atom   2 =  -4.69182
     SPIN  1
     eigenvalues:
       0.017  0.018  0.018  0.116  0.116
     eigenvectors (columns):
       1.000  0.000  0.002 -0.000  0.000
       0.001 -0.283 -0.516  0.625  0.514
       0.000  0.516 -0.284  0.513 -0.625
       0.000  0.709 -0.389 -0.374  0.455
       0.001 -0.390 -0.709 -0.455 -0.373
     occupation matrix ns (before diag.):
       0.017  0.000 -0.000  0.000 -0.000
       0.000  0.082 -0.000  0.000 -0.046
      -0.000 -0.000  0.082 -0.046  0.000
       0.000  0.000 -0.046  0.052 -0.000
      -0.000 -0.046  0.000 -0.000  0.052
     SPIN  2
     eigenvalues:
       0.991  0.991  0.998  0.998  0.998
     eigenvectors (columns):
       0.000 -0.000  0.006 -0.011  1.000
       0.340  0.671 -0.015  0.659  0.007
      -0.671  0.339  0.659  0.015 -0.004
       0.588 -0.298  0.752  0.017 -0.004
      -0.297 -0.588 -0.017  0.752  0.008
     occupation matrix ns (before diag.):
       0.998  0.000  0.000 -0.000  0.000
       0.000  0.994  0.000 -0.000  0.004
       0.000  0.000  0.994  0.004  0.000
      -0.000 -0.000  0.004  0.995 -0.000
       0.000  0.004  0.000 -0.000  0.995

     Number of occupied Hubbard levels =   10.5252

     HUBBARD ENERGY =    0.0815  (Ry)

     total cpu time spent up to now is    96934.8 secs

     total energy              =   -7099.74982222 Ry
     estimated scf accuracy    <       0.00286203 Ry

     total magnetization       =     0.00 Bohr mag/cell
     absolute magnetization    =    10.13 Bohr mag/cell

     iteration #  8     ecut=    60.00 Ry     beta= 0.40
     Davidson diagonalization with overlap

---- Real-time Memory Report at c_bands before calling an iterative solver
           707 MiB given to the printing process from OS
             0 MiB allocation reported by mallinfo(arena+hblkhd)
        234874 MiB available memory on the node where the printing process lives
------------------
     c_bands:  1 eigenvalues not converged
     c_bands:  1 eigenvalues not converged
     c_bands:  1 eigenvalues not converged
     c_bands:  1 eigenvalues not converged
     c_bands:  1 eigenvalues not converged
     c_bands:  1 eigenvalues not converged
     c_bands:  1 eigenvalues not converged
     c_bands:  1 eigenvalues not converged
     c_bands:  1 eigenvalues not converged
     c_bands:  1 eigenvalues not converged
     c_bands:  1 eigenvalues not converged
     c_bands:  1 eigenvalues not converged
     c_bands:  1 eigenvalues not converged
     c_bands:  1 eigenvalues not converged
     c_bands:  1 eigenvalues not converged
     c_bands:  1 eigenvalues not converged
     c_bands:  1 eigenvalues not converged
     c_bands:  2 eigenvalues not converged
     c_bands:  1 eigenvalues not converged
     c_bands:  1 eigenvalues not converged
     ethr =  2.07E-06,  avg # of iterations = 11.9

     =================== HUBBARD OCCUPATIONS ===================
     ------------------------ ATOM    1 ------------------------
     Tr[ns(  1)] (up, down, total) =   4.97637  0.28219  5.25856
     Atomic magnetic moment for atom   1 =   4.69418
     SPIN  1
     eigenvalues:
       0.991  0.991  0.998  0.998  0.998
     eigenvectors (columns):
       0.000  0.000  0.009  0.006  1.000
       0.706  0.260  0.155  0.640 -0.005
      -0.261  0.706  0.640 -0.155 -0.005
       0.228 -0.618  0.731 -0.177 -0.006
      -0.618 -0.228  0.177  0.731 -0.006
     occupation matrix ns (before diag.):
       0.998 -0.000 -0.000  0.000 -0.000
      -0.000  0.994  0.000 -0.000  0.004
      -0.000  0.000  0.994  0.004  0.000
       0.000 -0.000  0.004  0.995 -0.000
      -0.000  0.004  0.000 -0.000  0.995
     SPIN  2
     eigenvalues:
       0.017  0.018  0.018  0.115  0.115
     eigenvectors (columns):
       1.000  0.000 -0.000 -0.000 -0.000
       0.000  0.503  0.306 -0.222 -0.778
      -0.000  0.306 -0.503 -0.778  0.222
      -0.000  0.420 -0.691  0.566 -0.161
       0.000  0.691  0.420  0.162  0.566
     occupation matrix ns (before diag.):
       0.017  0.000  0.000 -0.000 -0.000
       0.000  0.081 -0.000  0.000 -0.046
       0.000 -0.000  0.081 -0.046 -0.000
      -0.000  0.000 -0.046  0.052  0.000
      -0.000 -0.046 -0.000  0.000  0.052
     ------------------------ ATOM    2 ------------------------
     Tr[ns(  2)] (up, down, total) =   0.28917  4.97735  5.26652
     Atomic magnetic moment for atom   2 =  -4.68818
     SPIN  1
     eigenvalues:
       0.017  0.018  0.018  0.118  0.118
     eigenvectors (columns):
       1.000 -0.000  0.001 -0.000  0.000
       0.000  0.447 -0.384  0.613  0.527
       0.000 -0.384 -0.447  0.527 -0.613
       0.000 -0.527 -0.613 -0.384  0.447
       0.001  0.613 -0.527 -0.447 -0.384
     occupation matrix ns (before diag.):
       0.017  0.000 -0.000  0.000 -0.000
       0.000  0.083 -0.000  0.000 -0.047
      -0.000 -0.000  0.083 -0.047  0.000
       0.000  0.000 -0.047  0.053 -0.000
      -0.000 -0.047  0.000 -0.000  0.053
     SPIN  2
     eigenvalues:
       0.991  0.991  0.998  0.998  0.998
     eigenvectors (columns):
      -0.000 -0.000 -0.004 -0.002 -1.000
      -0.346 -0.666  0.661  0.001 -0.002
       0.666 -0.346  0.001 -0.661  0.001
      -0.586  0.305  0.001 -0.751  0.001
       0.304  0.586  0.751  0.001 -0.003
     occupation matrix ns (before diag.):
       0.998  0.000 -0.000 -0.000  0.000
       0.000  0.994  0.000 -0.000  0.003
      -0.000  0.000  0.994  0.003 -0.000
      -0.000 -0.000  0.003  0.995  0.000
       0.000  0.003 -0.000  0.000  0.995

     Number of occupied Hubbard levels =   10.5251

     HUBBARD ENERGY =    0.0818  (Ry)

     total cpu time spent up to now is   108603.2 secs

     total energy              =   -7099.74986577 Ry
     estimated scf accuracy    <       0.00940849 Ry

     total magnetization       =    -0.00 Bohr mag/cell
     absolute magnetization    =    10.14 Bohr mag/cell

     iteration #  9     ecut=    60.00 Ry     beta= 0.40
     Davidson diagonalization with overlap

---- Real-time Memory Report at c_bands before calling an iterative solver
           707 MiB given to the printing process from OS
             0 MiB allocation reported by mallinfo(arena+hblkhd)
        234796 MiB available memory on the node where the printing process lives
------------------
     c_bands:  1 eigenvalues not converged
     c_bands:  1 eigenvalues not converged
     c_bands:  1 eigenvalues not converged
     c_bands:  1 eigenvalues not converged
     c_bands:  1 eigenvalues not converged
     c_bands:  1 eigenvalues not converged
     c_bands:  1 eigenvalues not converged
     c_bands:  1 eigenvalues not converged
     c_bands:  1 eigenvalues not converged
     c_bands:  1 eigenvalues not converged
     c_bands:  1 eigenvalues not converged
     c_bands:  1 eigenvalues not converged
     ethr =  2.07E-06,  avg # of iterations =  6.9

     =================== HUBBARD OCCUPATIONS ===================
     ------------------------ ATOM    1 ------------------------
     Tr[ns(  1)] (up, down, total) =   4.97691  0.28571  5.26261
     Atomic magnetic moment for atom   1 =   4.69120
     SPIN  1
     eigenvalues:
       0.991  0.991  0.998  0.998  0.998
     eigenvectors (columns):
      -0.000  0.000  0.002  0.005  1.000
       0.682  0.315 -0.218  0.623 -0.003
      -0.315  0.682  0.623  0.218 -0.002
       0.276 -0.599  0.709  0.248 -0.002
      -0.599 -0.276 -0.248  0.709 -0.003
     occupation matrix ns (before diag.):
       0.998 -0.000 -0.000  0.000 -0.000
      -0.000  0.994  0.000 -0.000  0.004
      -0.000  0.000  0.994  0.004  0.000
       0.000 -0.000  0.004  0.995 -0.000
      -0.000  0.004  0.000 -0.000  0.995
     SPIN  2
     eigenvalues:
       0.017  0.018  0.018  0.116  0.116
     eigenvectors (columns):
       1.000  0.000  0.000 -0.000 -0.000
       0.000 -0.485 -0.334 -0.175 -0.789
      -0.000 -0.334  0.485 -0.789  0.175
      -0.000 -0.459  0.666  0.575 -0.128
       0.000 -0.666 -0.459  0.128  0.575
     occupation matrix ns (before diag.):
       0.017  0.000  0.000 -0.000 -0.000
       0.000  0.082 -0.000  0.000 -0.047
       0.000 -0.000  0.082 -0.047 -0.000
      -0.000  0.000 -0.047  0.052  0.000
      -0.000 -0.047 -0.000  0.000  0.052
     ------------------------ ATOM    2 ------------------------
     Tr[ns(  2)] (up, down, total) =   0.28397  4.97668  5.26065
     Atomic magnetic moment for atom   2 =  -4.69272
     SPIN  1
     eigenvalues:
       0.017  0.018  0.018  0.115  0.115
     eigenvectors (columns):
       1.000  0.000 -0.000 -0.000  0.000
       0.000 -0.551  0.206  0.599  0.543
       0.000  0.206  0.551  0.543 -0.599
       0.000  0.283  0.757 -0.395  0.436
       0.000 -0.758  0.283 -0.436 -0.395
     occupation matrix ns (before diag.):
       0.017  0.000 -0.000  0.000 -0.000
       0.000  0.082 -0.000  0.000 -0.046
      -0.000 -0.000  0.082 -0.046  0.000
       0.000  0.000 -0.046  0.052 -0.000
      -0.000 -0.046  0.000 -0.000  0.052
     SPIN  2
     eigenvalues:
       0.991  0.991  0.998  0.998  0.998
     eigenvectors (columns):
      -0.000  0.000 -0.002  0.001  1.000
       0.375  0.651  0.658 -0.050  0.001
      -0.651  0.375  0.050  0.658 -0.001
       0.571 -0.329  0.057  0.749 -0.001
      -0.329 -0.571  0.749 -0.057  0.001
     occupation matrix ns (before diag.):
       0.998 -0.000 -0.000  0.000  0.000
      -0.000  0.994  0.000 -0.000  0.004
      -0.000  0.000  0.994  0.004 -0.000
       0.000 -0.000  0.004  0.995  0.000
       0.000  0.004 -0.000  0.000  0.995

     Number of occupied Hubbard levels =   10.5233

     HUBBARD ENERGY =    0.0820  (Ry)

     total cpu time spent up to now is   119435.7 secs

     total energy              =   -7099.75039019 Ry
     estimated scf accuracy    <       0.00076112 Ry

     total magnetization       =    -0.00 Bohr mag/cell
     absolute magnetization    =    10.14 Bohr mag/cell

     iteration # 10     ecut=    60.00 Ry     beta= 0.40
     Davidson diagonalization with overlap

---- Real-time Memory Report at c_bands before calling an iterative solver
           707 MiB given to the printing process from OS
             0 MiB allocation reported by mallinfo(arena+hblkhd)
        234896 MiB available memory on the node where the printing process lives
------------------
     ethr =  5.52E-07,  avg # of iterations =  1.9

     =================== HUBBARD OCCUPATIONS ===================
     ------------------------ ATOM    1 ------------------------
     Tr[ns(  1)] (up, down, total) =   4.97669  0.28396  5.26065
     Atomic magnetic moment for atom   1 =   4.69272
     SPIN  1
     eigenvalues:
       0.991  0.991  0.998  0.998  0.998
     eigenvectors (columns):
      -0.000  0.000  0.001  0.004  1.000
       0.681  0.318 -0.317  0.579 -0.002
      -0.318  0.681  0.579  0.317 -0.002
       0.279 -0.598  0.659  0.361 -0.002
      -0.598 -0.279 -0.361  0.659 -0.003
     occupation matrix ns (before diag.):
       0.998  0.000 -0.000 -0.000 -0.000
       0.000  0.994  0.000 -0.000  0.004
      -0.000  0.000  0.994  0.004  0.000
      -0.000 -0.000  0.004  0.995 -0.000
      -0.000  0.004  0.000 -0.000  0.995
     SPIN  2
     eigenvalues:
       0.017  0.018  0.018  0.115  0.116
     eigenvectors (columns):
       1.000  0.000  0.000 -0.000 -0.000
       0.000 -0.485 -0.334 -0.144 -0.795
      -0.000 -0.334  0.485 -0.795  0.144
      -0.000 -0.459  0.666  0.579 -0.105
       0.000 -0.666 -0.459  0.105  0.579
     occupation matrix ns (before diag.):
       0.017  0.000  0.000 -0.000 -0.000
       0.000  0.082 -0.000  0.000 -0.046
       0.000 -0.000  0.082 -0.046 -0.000
      -0.000  0.000 -0.046  0.052  0.000
      -0.000 -0.046 -0.000  0.000  0.052
     ------------------------ ATOM    2 ------------------------
     Tr[ns(  2)] (up, down, total) =   0.28380  4.97668  5.26048
     Atomic magnetic moment for atom   2 =  -4.69288
     SPIN  1
     eigenvalues:
       0.017  0.018  0.018  0.115  0.115
     eigenvectors (columns):
       1.000  0.000 -0.000 -0.000  0.000
       0.000 -0.572  0.139  0.588  0.554
       0.000  0.139  0.572  0.554 -0.588
       0.000  0.192  0.785 -0.404  0.428
       0.000 -0.785  0.192 -0.428 -0.404
     occupation matrix ns (before diag.):
       0.017  0.000 -0.000  0.000 -0.000
       0.000  0.082 -0.000  0.000 -0.046
      -0.000 -0.000  0.082 -0.046  0.000
       0.000  0.000 -0.046  0.052 -0.000
      -0.000 -0.046  0.000 -0.000  0.052
     SPIN  2
     eigenvalues:
       0.991  0.991  0.998  0.998  0.998
     eigenvectors (columns):
      -0.000  0.000 -0.001  0.001  1.000
       0.382  0.647  0.659 -0.029  0.001
      -0.647  0.382  0.029  0.659 -0.001
       0.568 -0.335  0.032  0.751 -0.001
      -0.335 -0.568  0.751 -0.032  0.001
     occupation matrix ns (before diag.):
       0.998  0.000 -0.000  0.000  0.000
       0.000  0.994  0.000 -0.000  0.004
      -0.000  0.000  0.994  0.004 -0.000
       0.000 -0.000  0.004  0.995  0.000
       0.000  0.004 -0.000  0.000  0.995

     Number of occupied Hubbard levels =   10.5211

     HUBBARD ENERGY =    0.0821  (Ry)

     total cpu time spent up to now is   129128.2 secs

     total energy              =   -7099.75047309 Ry
     estimated scf accuracy    <       0.00008404 Ry

     total magnetization       =    -0.00 Bohr mag/cell
     absolute magnetization    =    10.15 Bohr mag/cell

     iteration # 11     ecut=    60.00 Ry     beta= 0.40
     Davidson diagonalization with overlap

---- Real-time Memory Report at c_bands before calling an iterative solver
           707 MiB given to the printing process from OS
             0 MiB allocation reported by mallinfo(arena+hblkhd)
        235214 MiB available memory on the node where the printing process lives
------------------
     ethr =  6.09E-08,  avg # of iterations =  2.0

     =================== HUBBARD OCCUPATIONS ===================
     ------------------------ ATOM    1 ------------------------
     Tr[ns(  1)] (up, down, total) =   4.97664  0.28375  5.26038
     Atomic magnetic moment for atom   1 =   4.69289
     SPIN  1
     eigenvalues:
       0.991  0.991  0.998  0.998  0.998
     eigenvectors (columns):
      -0.000 -0.000 -0.000 -0.001  1.000
       0.662  0.356 -0.529 -0.394 -0.001
      -0.356  0.662  0.394 -0.529 -0.001
       0.313 -0.581  0.449 -0.603 -0.001
      -0.581 -0.313 -0.603 -0.449 -0.001
     occupation matrix ns (before diag.):
       0.998  0.000 -0.000 -0.000 -0.000
       0.000  0.994  0.000 -0.000  0.004
      -0.000  0.000  0.994  0.004 -0.000
      -0.000 -0.000  0.004  0.995 -0.000
      -0.000  0.004 -0.000 -0.000  0.995
     SPIN  2
     eigenvalues:
       0.017  0.018  0.018  0.115  0.115
     eigenvectors (columns):
       1.000 -0.000 -0.000 -0.000 -0.000
       0.000  0.524  0.268 -0.087 -0.804
      -0.000  0.268 -0.524 -0.804  0.087
      -0.000  0.368 -0.720  0.585 -0.063
       0.000  0.720  0.368  0.063  0.585
     occupation matrix ns (before diag.):
       0.017  0.000  0.000 -0.000 -0.000
       0.000  0.082 -0.000  0.000 -0.046
       0.000 -0.000  0.082 -0.046 -0.000
      -0.000  0.000 -0.046  0.052  0.000
      -0.000 -0.046 -0.000  0.000  0.052
     ------------------------ ATOM    2 ------------------------
     Tr[ns(  2)] (up, down, total) =   0.28436  4.97671  5.26107
     Atomic magnetic moment for atom   2 =  -4.69235
     SPIN  1
     eigenvalues:
       0.017  0.018  0.018  0.116  0.116
     eigenvectors (columns):
      -1.000 -0.000  0.000  0.000 -0.000
       0.000 -0.576 -0.121 -0.558 -0.585
      -0.000  0.121 -0.576 -0.585  0.558
      -0.000  0.166 -0.791  0.426 -0.406
       0.000 -0.791 -0.166  0.406  0.426
     occupation matrix ns (before diag.):
       0.017  0.000 -0.000  0.000 -0.000
       0.000  0.082 -0.000  0.000 -0.046
      -0.000 -0.000  0.082 -0.046  0.000
       0.000  0.000 -0.046  0.052 -0.000
      -0.000 -0.046  0.000 -0.000  0.052
     SPIN  2
     eigenvalues:
       0.991  0.991  0.998  0.998  0.998
     eigenvectors (columns):
       0.000 -0.000  0.000  0.001  1.000
      -0.463 -0.592  0.660 -0.007 -0.000
       0.592 -0.463  0.007  0.660 -0.000
      -0.520  0.406  0.008  0.751 -0.000
       0.406  0.520  0.751 -0.008 -0.000
     occupation matrix ns (before diag.):
       0.998 -0.000 -0.000  0.000 -0.000
      -0.000  0.994  0.000 -0.000  0.004
      -0.000  0.000  0.994  0.004 -0.000
       0.000 -0.000  0.004  0.995  0.000
      -0.000  0.004 -0.000  0.000  0.995

     Number of occupied Hubbard levels =   10.5214

     HUBBARD ENERGY =    0.0821  (Ry)

     total cpu time spent up to now is   138796.7 secs

     total energy              =   -7099.75047717 Ry
     estimated scf accuracy    <       0.00002747 Ry

     total magnetization       =    -0.00 Bohr mag/cell
     absolute magnetization    =    10.15 Bohr mag/cell

     iteration # 12     ecut=    60.00 Ry     beta= 0.40
     Davidson diagonalization with overlap

---- Real-time Memory Report at c_bands before calling an iterative solver
           707 MiB given to the printing process from OS
             0 MiB allocation reported by mallinfo(arena+hblkhd)
        235178 MiB available memory on the node where the printing process lives
------------------
     ethr =  1.99E-08,  avg # of iterations =  1.8

     =================== HUBBARD OCCUPATIONS ===================
     ------------------------ ATOM    1 ------------------------
     Tr[ns(  1)] (up, down, total) =   4.97668  0.28433  5.26101
     Atomic magnetic moment for atom   1 =   4.69235
     SPIN  1
     eigenvalues:
       0.991  0.991  0.998  0.998  0.998
     eigenvectors (columns):
      -0.000 -0.000 -0.000 -0.001  1.000
       0.674  0.332 -0.517 -0.410 -0.001
      -0.332  0.674  0.410 -0.517 -0.000
       0.292 -0.592  0.467 -0.589 -0.001
      -0.592 -0.292 -0.589 -0.467 -0.001
     occupation matrix ns (before diag.):
       0.998  0.000  0.000 -0.000 -0.000
       0.000  0.994  0.000  0.000  0.004
       0.000  0.000  0.994  0.004 -0.000
      -0.000  0.000  0.004  0.995  0.000
      -0.000  0.004 -0.000  0.000  0.995
     SPIN  2
     eigenvalues:
       0.017  0.018  0.018  0.116  0.116
     eigenvectors (columns):
       1.000 -0.000 -0.000 -0.000 -0.000
       0.000  0.205  0.552 -0.056 -0.807
      -0.000 -0.552  0.205 -0.807  0.056
      -0.000 -0.758  0.282  0.587 -0.041
       0.000  0.282  0.758  0.041  0.587
     occupation matrix ns (before diag.):
       0.017  0.000  0.000 -0.000 -0.000
       0.000  0.082 -0.000  0.000 -0.046
       0.000 -0.000  0.082 -0.046 -0.000
      -0.000  0.000 -0.046  0.052  0.000
      -0.000 -0.046 -0.000  0.000  0.052
     ------------------------ ATOM    2 ------------------------
     Tr[ns(  2)] (up, down, total) =   0.28405  4.97665  5.26071
     Atomic magnetic moment for atom   2 =  -4.69260
     SPIN  1
     eigenvalues:
       0.017  0.018  0.018  0.116  0.116
     eigenvectors (columns):
      -1.000  0.000 -0.000  0.000 -0.000
       0.000  0.588 -0.016 -0.536 -0.605
      -0.000  0.016  0.588 -0.605  0.536
      -0.000  0.022  0.808  0.441 -0.390
       0.000  0.808 -0.022  0.390  0.441
     occupation matrix ns (before diag.):
       0.017  0.000 -0.000  0.000 -0.000
       0.000  0.082 -0.000  0.000 -0.046
      -0.000 -0.000  0.082 -0.046  0.000
       0.000  0.000 -0.046  0.052 -0.000
      -0.000 -0.046  0.000 -0.000  0.052
     SPIN  2
     eigenvalues:
       0.991  0.991  0.998  0.998  0.998
     eigenvectors (columns):
      -0.000  0.000  0.001 -0.000 -1.000
       0.635  0.402  0.659  0.021  0.000
      -0.402  0.635  0.021 -0.659  0.000
       0.353 -0.557  0.024 -0.751  0.000
      -0.557 -0.353  0.751  0.024  0.000
     occupation matrix ns (before diag.):
       0.998 -0.000 -0.000  0.000 -0.000
      -0.000  0.994 -0.000  0.000  0.004
      -0.000 -0.000  0.994  0.004 -0.000
       0.000  0.000  0.004  0.995  0.000
      -0.000  0.004 -0.000  0.000  0.995

     Number of occupied Hubbard levels =   10.5217

     HUBBARD ENERGY =    0.0822  (Ry)

     total cpu time spent up to now is   148500.0 secs

     total energy              =   -7099.75048255 Ry
     estimated scf accuracy    <       0.00000937 Ry

     total magnetization       =     0.00 Bohr mag/cell
     absolute magnetization    =    10.15 Bohr mag/cell

     iteration # 13     ecut=    60.00 Ry     beta= 0.40
     Davidson diagonalization with overlap

---- Real-time Memory Report at c_bands before calling an iterative solver
           707 MiB given to the printing process from OS
             0 MiB allocation reported by mallinfo(arena+hblkhd)
        235358 MiB available memory on the node where the printing process lives
------------------
     ethr =  6.79E-09,  avg # of iterations =  2.0

     =================== HUBBARD OCCUPATIONS ===================
     ------------------------ ATOM    1 ------------------------
     Tr[ns(  1)] (up, down, total) =   4.97668  0.28442  5.26110
     Atomic magnetic moment for atom   1 =   4.69226
     SPIN  1
     eigenvalues:
       0.991  0.991  0.998  0.998  0.998
     eigenvectors (columns):
      -0.000 -0.000 -0.000  0.000  1.000
       0.648  0.380  0.630  0.195 -0.000
      -0.380  0.648 -0.195  0.630 -0.000
       0.334 -0.569 -0.222  0.718 -0.000
      -0.569 -0.334  0.718  0.222 -0.000
     occupation matrix ns (before diag.):
       0.998  0.000 -0.000 -0.000 -0.000
       0.000  0.994  0.000  0.000  0.004
      -0.000  0.000  0.994  0.004 -0.000
      -0.000  0.000  0.004  0.995  0.000
      -0.000  0.004 -0.000  0.000  0.995
     SPIN  2
     eigenvalues:
       0.017  0.018  0.018  0.116  0.116
     eigenvectors (columns):
       1.000  0.000 -0.000 -0.000 -0.000
       0.000 -0.284  0.516 -0.067 -0.806
      -0.000 -0.516 -0.284 -0.806  0.067
      -0.000 -0.708 -0.390  0.587 -0.049
       0.000 -0.390  0.708  0.049  0.587
     occupation matrix ns (before diag.):
       0.017  0.000  0.000 -0.000 -0.000
       0.000  0.082 -0.000  0.000 -0.046
       0.000 -0.000  0.082 -0.046 -0.000
      -0.000  0.000 -0.046  0.052  0.000
      -0.000 -0.046 -0.000  0.000  0.052
     ------------------------ ATOM    2 ------------------------
     Tr[ns(  2)] (up, down, total) =   0.28436  4.97668  5.26103
     Atomic magnetic moment for atom   2 =  -4.69232
     SPIN  1
     eigenvalues:
       0.017  0.018  0.018  0.116  0.116
     eigenvectors (columns):
      -1.000 -0.000  0.000  0.000 -0.000
       0.000 -0.516 -0.283 -0.532 -0.609
      -0.000  0.283 -0.516 -0.609  0.532
      -0.000  0.388 -0.709  0.443 -0.387
       0.000 -0.709 -0.388  0.387  0.443
     occupation matrix ns (before diag.):
       0.017  0.000 -0.000  0.000 -0.000
       0.000  0.082 -0.000  0.000 -0.046
      -0.000 -0.000  0.082 -0.046  0.000
       0.000  0.000 -0.046  0.052 -0.000
      -0.000 -0.046  0.000 -0.000  0.052
     SPIN  2
     eigenvalues:
       0.991  0.991  0.998  0.998  0.998
     eigenvectors (columns):
       0.000 -0.000  0.000  0.000  1.000
      -0.551 -0.511  0.659 -0.024 -0.000
       0.511 -0.551  0.024  0.659 -0.000
      -0.448  0.484  0.027  0.751 -0.000
       0.484  0.448  0.751 -0.027 -0.000
     occupation matrix ns (before diag.):
       0.998 -0.000 -0.000  0.000 -0.000
      -0.000  0.994 -0.000 -0.000  0.004
      -0.000 -0.000  0.994  0.004 -0.000
       0.000 -0.000  0.004  0.995  0.000
      -0.000  0.004 -0.000  0.000  0.995

     Number of occupied Hubbard levels =   10.5221

     HUBBARD ENERGY =    0.0822  (Ry)

     total cpu time spent up to now is   158248.4 secs

     total energy              =   -7099.75048361 Ry
     estimated scf accuracy    <       0.00000500 Ry

     total magnetization       =    -0.00 Bohr mag/cell
     absolute magnetization    =    10.16 Bohr mag/cell

     iteration # 14     ecut=    60.00 Ry     beta= 0.40
     Davidson diagonalization with overlap

---- Real-time Memory Report at c_bands before calling an iterative solver
           708 MiB given to the printing process from OS
             0 MiB allocation reported by mallinfo(arena+hblkhd)
        235440 MiB available memory on the node where the printing process lives
------------------
     ethr =  3.62E-09,  avg # of iterations =  1.4

     =================== HUBBARD OCCUPATIONS ===================
     ------------------------ ATOM    1 ------------------------
     Tr[ns(  1)] (up, down, total) =   4.97666  0.28430  5.26096
     Atomic magnetic moment for atom   1 =   4.69236
     SPIN  1
     eigenvalues:
       0.991  0.991  0.998  0.998  0.998
     eigenvectors (columns):
       0.000  0.000 -0.000  0.000 -1.000
       0.089 -0.746  0.655  0.078 -0.000
       0.746  0.089 -0.078  0.655  0.000
      -0.655 -0.078 -0.089  0.746  0.000
      -0.078  0.655  0.746  0.089 -0.000
     occupation matrix ns (before diag.):
       0.998  0.000 -0.000 -0.000 -0.000
       0.000  0.994  0.000  0.000  0.004
      -0.000  0.000  0.994  0.004 -0.000
      -0.000  0.000  0.004  0.995 -0.000
      -0.000  0.004 -0.000 -0.000  0.995
     SPIN  2
     eigenvalues:
       0.017  0.018  0.018  0.116  0.116
     eigenvectors (columns):
       1.000  0.000 -0.000 -0.000 -0.000
       0.000 -0.357  0.468 -0.080 -0.804
      -0.000 -0.468 -0.357 -0.804  0.080
      -0.000 -0.643 -0.490  0.586 -0.058
       0.000 -0.490  0.643  0.058  0.586
     occupation matrix ns (before diag.):
       0.017  0.000  0.000 -0.000 -0.000
       0.000  0.082 -0.000  0.000 -0.046
       0.000 -0.000  0.082 -0.046 -0.000
      -0.000  0.000 -0.046  0.052  0.000
      -0.000 -0.046 -0.000  0.000  0.052
     ------------------------ ATOM    2 ------------------------
     Tr[ns(  2)] (up, down, total) =   0.28427  4.97666  5.26093
     Atomic magnetic moment for atom   2 =  -4.69239
     SPIN  1
     eigenvalues:
       0.017  0.018  0.018  0.116  0.116
     eigenvectors (columns):
      -1.000  0.000 -0.000  0.000 -0.000
       0.000  0.168 -0.564 -0.537 -0.604
      -0.000 -0.564 -0.168 -0.604  0.537
      -0.000 -0.775 -0.231  0.440 -0.391
       0.000  0.231 -0.775  0.391  0.440
     occupation matrix ns (before diag.):
       0.017  0.000 -0.000  0.000 -0.000
       0.000  0.082 -0.000  0.000 -0.046
      -0.000 -0.000  0.082 -0.046  0.000
       0.000  0.000 -0.046  0.052 -0.000
      -0.000 -0.046  0.000 -0.000  0.052
     SPIN  2
     eigenvalues:
       0.991  0.991  0.998  0.998  0.998
     eigenvectors (columns):
       0.000 -0.000  0.000  0.000  1.000
      -0.466 -0.590  0.652  0.100 -0.000
       0.590 -0.466 -0.100  0.652 -0.000
      -0.518  0.409 -0.114  0.743 -0.000
       0.409  0.518  0.743  0.114 -0.000
     occupation matrix ns (before diag.):
       0.998  0.000 -0.000  0.000 -0.000
       0.000  0.994  0.000 -0.000  0.004
      -0.000  0.000  0.994  0.004 -0.000
       0.000 -0.000  0.004  0.995  0.000
      -0.000  0.004 -0.000  0.000  0.995

     Number of occupied Hubbard levels =   10.5219

     HUBBARD ENERGY =    0.0822  (Ry)

     total cpu time spent up to now is   168491.1 secs

[...]
     6.6923   6.7104   7.0157   7.1845   7.2702   8.7320   8.9324   9.2076
     9.4543   9.5112   9.5323   9.5676   9.7322   9.7471   9.8707  10.1180
    10.2881  10.4322  10.5372  10.6921  10.9540  11.2568  11.5437  11.8770
    12.0775  12.2736  12.4673  12.7710  13.4099  13.4840  13.5169  13.5856
    13.8607  14.1566  14.1789  14.2190  14.4797  14.6610  14.7044  14.8047
    14.9443  15.1443  15.3050  15.4599  15.6164  16.0776  16.1232  16.2037
    16.2586  16.3792  16.9407  16.9870  17.1471  17.1964  17.2370  17.4886
    17.4972  17.6579  17.8886  18.1599  18.3479  18.6679  18.6823  18.7569
    18.9811  19.0646  19.0961  19.1691  19.5564  19.6719  19.8416  19.9236
    19.9655  20.1622  20.4486  20.6386  20.7503  20.9586  21.4580  21.6628
    21.7934  21.8536  22.0305  22.0757  22.4053  22.4992  22.6794  22.7397
    22.7864  23.5014  23.6103  23.6355  23.6828  23.8404  23.8594  23.9297
    23.9405  24.1257  24.1690  24.3748  24.3931  24.4931  24.7363  24.8549
    24.8803  25.0603  25.1831  25.3053  25.3661  25.4954  25.5701  25.5702
    25.8436  25.9102  26.0182  26.1909  26.3308  26.5384  26.7799  27.0374
    27.1740  27.2103  27.2900  27.3736  27.7960  28.0090  28.2526  28.2900
    28.6069  28.6321  28.6692  28.8689  28.9316  29.1481  29.3722  29.5077

     occupation numbers 
     1.0000   1.0000   1.0000   1.0000   1.0000   1.0000   1.0000   1.0000
     1.0000   1.0000   1.0000   1.0000   1.0000   1.0000   1.0000   1.0000
     1.0000   1.0000   1.0000   1.0000   1.0000   1.0000   1.0000   1.0000
     1.0000   1.0000   1.0000   1.0000   1.0000   1.0000   1.0000   1.0000
     1.0000   1.0000   1.0000   1.0000   1.0000   1.0000   1.0000   1.0000
     1.0000   1.0000   1.0000   1.0000   1.0000   1.0000   1.0000   1.0000
     1.0000   1.0000   1.0000   1.0000   1.0000   1.0000   1.0000   1.0000
     1.0000   1.0000   1.0000   1.0000   1.0000   1.0000   1.0000   1.0000
     1.0000   1.0000   1.0000   1.0000   1.0000   0.0000   0.0000   0.0000
     0.0000   0.0000   0.0000   0.0000   0.0000   0.0000   0.0000   0.0000
     0.0000   0.0000   0.0000   0.0000   0.0000   0.0000   0.0000   0.0000
     0.0000   0.0000   0.0000   0.0000   0.0000   0.0000   0.0000   0.0000
     0.0000   0.0000   0.0000   0.0000   0.0000   0.0000   0.0000   0.0000
     0.0000   0.0000   0.0000   0.0000   0.0000   0.0000   0.0000   0.0000
     0.0000   0.0000   0.0000   0.0000   0.0000   0.0000   0.0000   0.0000
     0.0000   0.0000   0.0000   0.0000   0.0000   0.0000   0.0000   0.0000
     0.0000   0.0000   0.0000   0.0000   0.0000   0.0000   0.0000   0.0000
     0.0000   0.0000   0.0000   0.0000   0.0000   0.0000   0.0000   0.0000
     0.0000   0.0000   0.0000   0.0000   0.0000   0.0000   0.0000   0.0000
     0.0000   0.0000   0.0000   0.0000   0.0000   0.0000   0.0000   0.0000
     0.0000   0.0000   0.0000   0.0000   0.0000   0.0000   0.0000   0.0000
     0.0000   0.0000   0.0000   0.0000   0.0000   0.0000   0.0000   0.0000
     0.0000   0.0000   0.0000   0.0000   0.0000   0.0000   0.0000   0.0000
     0.0000   0.0000   0.0000   0.0000   0.0000   0.0000   0.0000   0.0000
     0.0000   0.0000   0.0000   0.0000   0.0000   0.0000   0.0000   0.0000

          k =-3.1612-1.8251-0.0837 ( 23506 PWs)   bands (ev):

   -74.8256 -69.9213 -43.5594 -43.5582 -43.5578 -38.7444 -38.7437 -38.7396
   -15.5457 -15.5456 -15.5403 -15.5402 -15.5282 -15.5282 -15.5235 -15.5235
   -15.5229 -15.5227 -15.5185 -15.5183 -15.5115 -15.5114 -15.5099 -15.5099
   -15.5069 -15.5067 -15.5050 -15.5048  -3.9204  -3.9141  -3.8934  -3.8821
    -3.2085  -3.1754  -3.0934  -3.0162  -2.4478  -2.4175  -2.2468  -2.2236
     1.8117   1.9642   2.0209   2.2560   2.3294   2.6446   2.7876   3.0348
     3.1932   3.7565   3.8922   4.1814   4.5306   4.5723   4.5922   4.6238
     4.8178   4.9387   5.0913   5.1582   5.5546   5.8360   5.8912   6.1119
     6.3781   6.4031   6.6937   6.9222   7.1150   8.4127   8.6853   9.1277
     9.2178   9.2925   9.4841   9.5170   9.5375   9.7830  10.0288  10.3132
    10.4249  10.5386  10.5956  10.6362  11.2746  11.2747  11.3994  11.5079
    11.7665  12.0116  12.5268  13.1635  13.4736  13.9149  14.2719  14.3607
    14.7828  14.8400  15.3443  15.7307  16.0759  16.4096  16.5773  16.6419
    16.8682  16.8683  16.9869  17.0266  17.5452  17.6885  17.8776  17.9159
    17.9606  18.0596  18.0699  18.0822  18.1754  18.2472  18.2509  18.5228
    18.6685  18.7165  19.0193  19.1268  19.2014  19.3950  19.4634  19.5828
    19.6164  19.9166  19.9979  20.0721  20.1559  20.1787  20.2172  20.4791
    20.4969  20.5200  20.6168  20.7813  21.0703  21.1812  21.3680  21.5014
    21.5400  21.6462  21.9127  22.2080  22.2942  22.3671  22.5407  22.5943
    22.9248  22.9897  23.0806  23.1454  23.1888  23.3822  23.5033  23.5131
    23.5922  23.8479  23.9321  23.9700  24.1491  24.1850  24.3207  24.4244
    24.4841  24.5542  24.8501  24.9233  25.0743  25.1781  25.2178  25.3950
    25.5212  25.6082  25.7296  25.7548  25.8426  25.9583  25.9906  26.0848
    26.1861  26.3835  26.4063  26.5635  26.6777  26.6998  26.9560  26.9877
    27.0794  27.4472  27.5735  27.6484  27.6524  27.9651  28.0319  28.0946

     occupation numbers 
     1.0000   1.0000   1.0000   1.0000   1.0000   1.0000   1.0000   1.0000
     1.0000   1.0000   1.0000   1.0000   1.0000   1.0000   1.0000   1.0000
     1.0000   1.0000   1.0000   1.0000   1.0000   1.0000   1.0000   1.0000
     1.0000   1.0000   1.0000   1.0000   1.0000   1.0000   1.0000   1.0000
     1.0000   1.0000   1.0000   1.0000   1.0000   1.0000   1.0000   1.0000
     1.0000   1.0000   1.0000   1.0000   1.0000   1.0000   1.0000   1.0000
     1.0000   1.0000   1.0000   1.0000   1.0000   1.0000   1.0000   1.0000
     1.0000   1.0000   1.0000   1.0000   1.0000   1.0000   1.0000   1.0000
     1.0000   1.0000   1.0000   1.0000   1.0000   0.0000   0.0000   0.0000
     0.0000   0.0000   0.0000   0.0000   0.0000   0.0000   0.0000   0.0000
     0.0000   0.0000   0.0000   0.0000   0.0000   0.0000   0.0000   0.0000
     0.0000   0.0000   0.0000   0.0000   0.0000   0.0000   0.0000   0.0000
     0.0000   0.0000   0.0000   0.0000   0.0000   0.0000   0.0000   0.0000
     0.0000   0.0000   0.0000   0.0000   0.0000   0.0000   0.0000   0.0000
     0.0000   0.0000   0.0000   0.0000   0.0000   0.0000   0.0000   0.0000
     0.0000   0.0000   0.0000   0.0000   0.0000   0.0000   0.0000   0.0000
     0.0000   0.0000   0.0000   0.0000   0.0000   0.0000   0.0000   0.0000
     0.0000   0.0000   0.0000   0.0000   0.0000   0.0000   0.0000   0.0000
     0.0000   0.0000   0.0000   0.0000   0.0000   0.0000   0.0000   0.0000
     0.0000   0.0000   0.0000   0.0000   0.0000   0.0000   0.0000   0.0000
     0.0000   0.0000   0.0000   0.0000   0.0000   0.0000   0.0000   0.0000
     0.0000   0.0000   0.0000   0.0000   0.0000   0.0000   0.0000   0.0000
     0.0000   0.0000   0.0000   0.0000   0.0000   0.0000   0.0000   0.0000
     0.0000   0.0000   0.0000   0.0000   0.0000   0.0000   0.0000   0.0000
     0.0000   0.0000   0.0000   0.0000   0.0000   0.0000   0.0000   0.0000

          k = 1.5806 0.9125-0.3347 ( 23491 PWs)   bands (ev):

   -74.8256 -69.9213 -43.5595 -43.5579 -43.5577 -38.7439 -38.7436 -38.7397
   -15.5397 -15.5395 -15.5343 -15.5341 -15.5301 -15.5300 -15.5248 -15.5246
   -15.5212 -15.5211 -15.5166 -15.5166 -15.5162 -15.5160 -15.5151 -15.5151
   -15.5119 -15.5118 -15.5101 -15.5099  -5.0237  -5.0122  -4.8406  -4.8238
    -3.4262  -3.3659  -3.0099  -2.9384  -1.7172  -1.7108  -1.3441  -1.3214
     1.9288   1.9622   2.0386   2.1259   2.1606   3.4509   3.6277   3.8106
     4.1472   4.2954   4.4430   4.8196   4.8429   5.0860   5.0983   5.3803
     5.4103   5.4531   5.8014   5.9797   6.2267   6.2696   6.3386   6.4025
     6.7101   6.7445   7.0493   7.1742   7.2595   8.7125   9.1509   9.1963
     9.2920   9.3660   9.4268   9.6226   9.7696   9.9152   9.9185  10.0252
    10.3295  10.4310  10.5520  10.6627  10.9604  11.2391  11.5428  11.8201
    12.1531  12.2857  12.4510  12.7647  13.3636  13.5009  13.5883  13.6813
    13.7063  14.0806  14.1632  14.2395  14.4320  14.7045  14.8030  14.8460
    14.9379  15.1967  15.2252  15.5054  15.7651  15.9124  16.0435  16.2165
    16.3254  16.4204  16.5716  16.9111  17.0433  17.1422  17.2878  17.7895
    17.9043  17.9519  17.9910  18.1514  18.2895  18.3607  18.5902  18.7107
    18.7750  18.8729  19.0065  19.1974  19.3849  19.6487  19.9285  19.9759
    20.1637  20.4369  20.5881  20.6795  21.0677  21.0723  21.3304  21.4208
    21.5079  21.6040  21.8310  21.8636  22.3727  22.6139  22.9374  23.1130
    23.1495  23.2075  23.6647  23.6774  23.7234  23.7264  23.9724  24.0143
    24.0436  24.0543  24.0576  24.2389  24.3150  24.4462  24.4770  24.7595
    24.8308  24.9258  25.1390  25.2490  25.6183  25.6419  25.7788  25.8212
    25.8867  25.9183  26.0369  26.2695  26.3813  26.5948  26.6400  26.6947
    26.7683  27.3473  27.3669  27.4148  27.7369  28.0413  28.1432  28.5052
    28.5212  28.5926  28.8616  29.0482  29.0525  29.1655  29.2052  29.3083

     occupation numbers 
     1.0000   1.0000   1.0000   1.0000   1.0000   1.0000   1.0000   1.0000
     1.0000   1.0000   1.0000   1.0000   1.0000   1.0000   1.0000   1.0000
     1.0000   1.0000   1.0000   1.0000   1.0000   1.0000   1.0000   1.0000
     1.0000   1.0000   1.0000   1.0000   1.0000   1.0000   1.0000   1.0000
     1.0000   1.0000   1.0000   1.0000   1.0000   1.0000   1.0000   1.0000
     1.0000   1.0000   1.0000   1.0000   1.0000   1.0000   1.0000   1.0000
     1.0000   1.0000   1.0000   1.0000   1.0000   1.0000   1.0000   1.0000
     1.0000   1.0000   1.0000   1.0000   1.0000   1.0000   1.0000   1.0000
     1.0000   1.0000   1.0000   1.0000   1.0000   0.0000   0.0000   0.0000
     0.0000   0.0000   0.0000   0.0000   0.0000   0.0000   0.0000   0.0000
     0.0000   0.0000   0.0000   0.0000   0.0000   0.0000   0.0000   0.0000
     0.0000   0.0000   0.0000   0.0000   0.0000   0.0000   0.0000   0.0000
     0.0000   0.0000   0.0000   0.0000   0.0000   0.0000   0.0000   0.0000
     0.0000   0.0000   0.0000   0.0000   0.0000   0.0000   0.0000   0.0000
     0.0000   0.0000   0.0000   0.0000   0.0000   0.0000   0.0000   0.0000
     0.0000   0.0000   0.0000   0.0000   0.0000   0.0000   0.0000   0.0000
     0.0000   0.0000   0.0000   0.0000   0.0000   0.0000   0.0000   0.0000
     0.0000   0.0000   0.0000   0.0000   0.0000   0.0000   0.0000   0.0000
     0.0000   0.0000   0.0000   0.0000   0.0000   0.0000   0.0000   0.0000
     0.0000   0.0000   0.0000   0.0000   0.0000   0.0000   0.0000   0.0000
     0.0000   0.0000   0.0000   0.0000   0.0000   0.0000   0.0000   0.0000
     0.0000   0.0000   0.0000   0.0000   0.0000   0.0000   0.0000   0.0000
     0.0000   0.0000   0.0000   0.0000   0.0000   0.0000   0.0000   0.0000
     0.0000   0.0000   0.0000   0.0000   0.0000   0.0000   0.0000   0.0000
     0.0000   0.0000   0.0000   0.0000   0.0000   0.0000   0.0000   0.0000

          k = 0.0000 0.0000-0.2510 ( 23470 PWs)   bands (ev):

   -74.8256 -69.9213 -43.5595 -43.5576 -43.5576 -38.7435 -38.7435 -38.7397
   -15.5344 -15.5344 -15.5343 -15.5343 -15.5291 -15.5291 -15.5289 -15.5289
   -15.5224 -15.5222 -15.5178 -15.5176 -15.5176 -15.5175 -15.5175 -15.5175
   -15.5125 -15.5125 -15.5123 -15.5123  -5.5614  -5.5394  -5.3653  -5.3319
    -3.8075  -3.6652  -3.2867  -3.1000  -1.5162  -1.2790  -0.8043  -0.6167
     1.8882   1.8882   1.9501   2.1578   2.1578   4.1648   4.3307   5.1860
     5.4820   5.9361   5.9362   5.9831   5.9831   6.0991   6.0991   6.1937
     6.1937   6.3069   6.4336   6.4336   6.5524   6.9490   6.9490   7.0222
     7.0222   7.2535   7.2535   7.5534   7.7434   8.3737   8.5850   8.7996
     8.7996   8.9478   8.9478   9.0396   9.1590   9.2330   9.2330   9.3802
     9.3802  10.1130  10.1131  10.1505  10.8489  10.8490  11.4052  11.6140
    11.7173  12.5768  12.7432  12.7432  13.2558  13.3045  13.3045  13.3413
    13.6056  13.7694  13.7695  13.8109  14.0358  14.0358  14.0622  14.3829
    14.3829  14.5213  14.7185  14.7185  15.1029  15.2131  15.5111  15.5111
    15.5359  15.6592  15.6592  15.8017  16.0671  16.1269  16.1269  16.1592
    16.1592  16.5147  16.8630  16.8630  17.0147  17.1071  17.1071  17.7006
    17.9308  17.9308  18.2835  18.3136  18.3136  18.3603  18.9795  19.1596
    19.2880  19.2881  19.4102  19.4102  19.7284  20.3611  20.5212  20.5212
    20.8208  20.8208  20.8561  21.1844  21.6510  21.7362  21.7362  22.1997
    22.1997  22.4218  22.7361  23.0909  23.0909  23.5105  23.5105  23.6002
    24.6162  24.6162  24.6830  25.3887  25.4056  25.4056  25.7470  26.0949
    26.0949  26.4307  26.5481  26.8586  26.8586  27.4043  27.9194  27.9194
    28.2168  28.3624  28.3624  28.4697  28.5058  28.6104  28.6435  28.6532
    29.0257  29.2834  29.2835  29.5463  29.5463  29.8037  29.8037  30.0314
    30.0314  30.1242  30.1242  30.1405  30.2327  30.4120  30.5674  30.5674

     occupation numbers 
     1.0000   1.0000   1.0000   1.0000   1.0000   1.0000   1.0000   1.0000
     1.0000   1.0000   1.0000   1.0000   1.0000   1.0000   1.0000   1.0000
     1.0000   1.0000   1.0000   1.0000   1.0000   1.0000   1.0000   1.0000
     1.0000   1.0000   1.0000   1.0000   1.0000   1.0000   1.0000   1.0000
     1.0000   1.0000   1.0000   1.0000   1.0000   1.0000   1.0000   1.0000
     1.0000   1.0000   1.0000   1.0000   1.0000   1.0000   1.0000   1.0000
     1.0000   1.0000   1.0000   1.0000   1.0000   1.0000   1.0000   1.0000
     1.0000   1.0000   1.0000   1.0000   1.0000   1.0000   1.0000   1.0000
     1.0000   1.0000   1.0000   1.0000   1.0000   0.0000   0.0000   0.0000
     0.0000   0.0000   0.0000   0.0000   0.0000   0.0000   0.0000   0.0000
     0.0000   0.0000   0.0000   0.0000   0.0000   0.0000   0.0000   0.0000
     0.0000   0.0000   0.0000   0.0000   0.0000   0.0000   0.0000   0.0000
     0.0000   0.0000   0.0000   0.0000   0.0000   0.0000   0.0000   0.0000
     0.0000   0.0000   0.0000   0.0000   0.0000   0.0000   0.0000   0.0000
     0.0000   0.0000   0.0000   0.0000   0.0000   0.0000   0.0000   0.0000
     0.0000   0.0000   0.0000   0.0000   0.0000   0.0000   0.0000   0.0000
     0.0000   0.0000   0.0000   0.0000   0.0000   0.0000   0.0000   0.0000
     0.0000   0.0000   0.0000   0.0000   0.0000   0.0000   0.0000   0.0000
     0.0000   0.0000   0.0000   0.0000   0.0000   0.0000   0.0000   0.0000
     0.0000   0.0000   0.0000   0.0000   0.0000   0.0000   0.0000   0.0000
     0.0000   0.0000   0.0000   0.0000   0.0000   0.0000   0.0000   0.0000
     0.0000   0.0000   0.0000   0.0000   0.0000   0.0000   0.0000   0.0000
     0.0000   0.0000   0.0000   0.0000   0.0000   0.0000   0.0000   0.0000
     0.0000   0.0000   0.0000   0.0000   0.0000   0.0000   0.0000   0.0000
     0.0000   0.0000   0.0000   0.0000   0.0000   0.0000   0.0000   0.0000

     the Fermi energy is     8.0414 ev

!    total energy              =   -7099.75048442 Ry
     total all-electron energy =   -285595.829634 Ry
     estimated scf accuracy    <       0.00000002 Ry
     smearing contrib. (-TS)   =       0.00000000 Ry
     internal energy E=F+TS    =   -7099.75048442 Ry

     The total energy is F=E-TS. E is the sum of the following terms:
     one-electron contribution =    -651.51013984 Ry
     hartree contribution      =     402.69529931 Ry
     xc contribution           =    -318.72182477 Ry
     ewald contribution        =    -672.20588499 Ry
     DFT-D3 Dispersion         =      -0.28928769 Ry
     Hubbard energy            =       0.08225396 Ry
     one-center paw contrib.   =   -5859.80090039 Ry
      -> PAW hartree energy AE =     161.21456455 Ry
      -> PAW hartree energy PS =    -162.32878673 Ry
      -> PAW xc energy AE      =    -103.77730384 Ry
      -> PAW xc energy PS      =      27.13711406 Ry
      -> total E_H with PAW    =     401.58107712 Ry
      -> total E_XC with PAW   =    -395.36201456 Ry

     total magnetization       =    -0.00 Bohr mag/cell
     absolute magnetization    =    10.16 Bohr mag/cell

     convergence has been achieved in  17 iterations

     Writing all to output data dir ./tmp/MnBi2Te4.save/
 
     init_run     :   1746.36s CPU   1802.53s WALL (       1 calls)
     electrons    : 183215.96s CPU 197568.54s WALL (       1 calls)

     Called by init_run:
     wfcinit      :   1740.79s CPU   1796.59s WALL (       1 calls)
     wfcinit:atom :      0.18s CPU      0.19s WALL (     128 calls)
     wfcinit:wfcr :   1725.60s CPU   1780.94s WALL (     128 calls)
     potinit      :      2.93s CPU      3.15s WALL (       1 calls)
     hinit0       :      2.10s CPU      2.18s WALL (       1 calls)

     Called by electrons:
     c_bands      : 147527.37s CPU 159320.02s WALL (      18 calls)
     sum_band     :  35573.34s CPU  38119.81s WALL (      18 calls)
     v_of_rho     :     55.56s CPU     62.04s WALL (      18 calls)
     v_h          :      2.21s CPU      2.48s WALL (      18 calls)
     v_xc         :     53.34s CPU     59.56s WALL (      18 calls)
     newd         :     11.44s CPU     12.68s WALL (      18 calls)
     PAW_pot      :     23.67s CPU     25.90s WALL (      18 calls)
     mix_rho      :     16.85s CPU     19.66s WALL (      18 calls)
     energy_dftd3 :      0.19s CPU      0.19s WALL (       1 calls)

     Called by c_bands:
     init_us_2    :     10.10s CPU     10.61s WALL (    4864 calls)
     init_us_2:cp :     10.04s CPU     10.57s WALL (    4864 calls)
     cegterg      : 147300.69s CPU 159067.02s WALL (    2304 calls)

     Called by sum_band:
     sum_band:wei :      0.28s CPU      0.32s WALL (      18 calls)
     sum_band:loo :  35394.04s CPU  37916.90s WALL (      18 calls)
     sum_band:buf :      3.57s CPU      5.88s WALL (    2304 calls)
     sum_band:ini :      4.44s CPU      4.71s WALL (    2304 calls)
     sum_band:cal :    485.93s CPU    518.48s WALL (    2304 calls)
     sum_band:bec :      2.93s CPU      3.00s WALL (    2304 calls)
     addusdens    :      8.09s CPU      9.62s WALL (      18 calls)
                                        0.00s GPU  (      18 calls)
     addusd:skk   :      0.02s CPU      0.02s WALL (      72 calls)
                                        0.00s GPU  (      72 calls)

     Called by *egterg:
     cdiaghg      :   2997.81s CPU   3926.67s WALL (   14281 calls)
     cegterg:over :   2080.54s CPU   2240.31s WALL (   12105 calls)
     cegterg:upda :   1063.98s CPU   1125.03s WALL (   12105 calls)
     cegterg:last :   1500.15s CPU   1609.92s WALL (    4525 calls)
     cdiaghg:chol :    269.98s CPU    290.31s WALL (   14281 calls)
     cdiaghg:inve :     26.79s CPU     32.81s WALL (   14281 calls)
     cdiaghg:para :    560.72s CPU    655.17s WALL (   28562 calls)
     h_psi        : 139994.88s CPU 150458.92s WALL (   14537 calls)
     s_psi        :    286.88s CPU    319.66s WALL (   14665 calls)
     g_psi        :      4.04s CPU      4.28s WALL (   12105 calls)

     Called by h_psi:
     h_psi:calbec :   1540.35s CPU   1644.26s WALL (   14537 calls)
     vloc_psi     : 137111.66s CPU 147393.87s WALL (   14537 calls)
     add_vuspsi   :    275.06s CPU    303.82s WALL (   14537 calls)
     vhpsi        :   1058.53s CPU   1106.51s WALL (   14537 calls)

     General routines
     calbec       :   3206.45s CPU   3408.86s WALL (   33810 calls)
     fft          :     40.90s CPU     43.86s WALL (     378 calls)
     ffts         :      2.39s CPU      2.66s WALL (      36 calls)
     fftw         : 154848.83s CPU 166266.08s WALL ( 2593442 calls)
     davcio       :      0.01s CPU      0.07s WALL (     128 calls)
 
     Parallel routines

     Hubbard U routines
     new_ns       :    158.37s CPU    179.60s WALL (      18 calls)
     vhpsi        :   1058.53s CPU   1106.51s WALL (   14537 calls)

     PAW routines
     PAW_pot      :     23.67s CPU     25.90s WALL (      18 calls)
 
     PWSCF        :   2d 4h41m CPU   2d 8h49m WALL

 
   This run was terminated on:   1:37:27   6Sep2025            

=------------------------------------------------------------------------------=
   JOB DONE.
=------------------------------------------------------------------------------=
