
     Program PWSCF v.7.2 starts on  6Sep2025 at  1:37:27 

     This program is part of the open-source Quantum ESPRESSO suite
     for quantum simulation of materials; please cite
         "P. Giannozzi et al., J. Phys.:Condens. Matter 21 395502 (2009);
         "P. Giannozzi et al., J. Phys.:Condens. Matter 29 465901 (2017);
         "P. Giannozzi et al., J. Chem. Phys. 152 154105 (2020);
          URL http://www.quantum-espresso.org", 
     in publications or presentations arising from this work. More details at
     http://www.quantum-espresso.org/quote

     Parallel version (MPI), running on    32 processors

     MPI processes distributed on     1 nodes
     243231 MiB available memory on the printing compute node when the environment starts
 
     Reading input from MnBi2Te4.nscf.in

     Current dimensions of program PWSCF are:
     Max number of different atomic species (ntypx) = 10
     Max number of k-points (npk) =  40000
     Max angular momentum in pseudopotentials (lmaxx) =  4

     Atomic positions and unit cell read from directory:
     ./tmp/MnBi2Te4.save/
     Atomic positions from file used, from input discarded
 
     file Mn.pbe-spn-kjpaw_psl.0.3.1.UPF: wavefunction(s)  3P 3D renormalized
     file Mn.pbe-spn-kjpaw_psl.0.3.1.UPF: wavefunction(s)  3P 3D renormalized
     file Bi.pbe-dn-kjpaw_psl.1.0.0.UPF: wavefunction(s)  6P 5D renormalized
     file Te.pbe-n-kjpaw_psl.1.0.0.UPF: wavefunction(s)  5S 5P renormalized
 
     R & G space division:  proc/nbgrp/npool/nimage =      32
     Subspace diagonalization in iterative solution of the eigenvalue problem:
     one sub-group per band group will be used
     scalapack distributed-memory algorithm (size of sub-group:  2*  2 procs)

 
     Parallelization info
     --------------------
     sticks:   dense  smooth     PW     G-vecs:    dense   smooth      PW
     Min         252     252     75                 5873     5873     962
     Max         253     253     76                 5875     5875     964
     Sum        8079    8079   2413               187971   187971   30811
 
     Using Slab Decomposition
 


     bravais-lattice index     =            0
     lattice parameter (alat)  =      51.7756  a.u.
     unit-cell volume          =    2994.5794 (a.u.)^3
     number of atoms/cell      =           14
     number of atomic types    =            4
     number of electrons       =       138.00
     number of Kohn-Sham states=          200
     kinetic-energy cutoff     =      60.0000  Ry
     charge density cutoff     =     240.0000  Ry
     Exchange-correlation= SLA  PW   PBX  PBC
                           (   1   4   3   4   0   0   0)
     Hubbard projectors: ortho-atomic
     Hubbard parameters of DFT+U (Dudarev formulation) in eV:
     U(Mn1-3d) =  4.0000
     U(Mn2-3d) =  4.0000

     Internal variables: lda_plus_u = T, lda_plus_u_kind = 0

     celldm(1)=  51.775642  celldm(2)=   0.000000  celldm(3)=   0.000000
     celldm(4)=   0.000000  celldm(5)=   0.000000  celldm(6)=   0.000000

     crystal axes: (cart. coord. in units of alat)
               a(1) = (   0.079085  -0.045660   0.995822 )  
               a(2) = (   0.000000   0.091319   0.995822 )  
               a(3) = (  -0.079085  -0.045660   0.995822 )  

     reciprocal axes: (cart. coord. in units 2 pi/alat)
               b(1) = (  6.322314 -3.650196  0.334731 )  
               b(2) = (  0.000000  7.300392  0.334734 )  
               b(3) = ( -6.322314 -3.650196  0.334731 )  


     PseudoPot. # 1 for Mn read from file:
     ./Mn.pbe-spn-kjpaw_psl.0.3.1.UPF
     MD5 check sum: 872d0d815bb0ce6e24cff79ea4d0ae31
     Pseudo is Projector augmented-wave + core cor, Zval = 15.0
     Generated using &quot;atomic&quot; code by A. Dal Corso  v.6.2.2
     Shape of augmentation charge: PSQ
     Using radial grid of 1187 points,  6 beta functions with: 
                l(1) =   0
                l(2) =   0
                l(3) =   1
                l(4) =   1
                l(5) =   2
                l(6) =   2
     Q(r) pseudized with 0 coefficients 


     PseudoPot. # 2 for Mn read from file:
     ./Mn.pbe-spn-kjpaw_psl.0.3.1.UPF
     MD5 check sum: 872d0d815bb0ce6e24cff79ea4d0ae31
     Pseudo is Projector augmented-wave + core cor, Zval = 15.0
     Generated using &quot;atomic&quot; code by A. Dal Corso  v.6.2.2
     Shape of augmentation charge: PSQ
     Using radial grid of 1187 points,  6 beta functions with: 
                l(1) =   0
                l(2) =   0
                l(3) =   1
                l(4) =   1
                l(5) =   2
                l(6) =   2
     Q(r) pseudized with 0 coefficients 


     PseudoPot. # 3 for Bi read from file:
     ./Bi.pbe-dn-kjpaw_psl.1.0.0.UPF
     MD5 check sum: 29baffecec4108f41a587bcf9a453472
     Pseudo is Projector augmented-wave + core cor, Zval = 15.0
     Generated using &quot;atomic&quot; code by A. Dal Corso  v.6.2.2
     Shape of augmentation charge: PSQ
     Using radial grid of 1283 points,  6 beta functions with: 
                l(1) =   0
                l(2) =   0
                l(3) =   1
                l(4) =   1
                l(5) =   2
                l(6) =   2
     Q(r) pseudized with 0 coefficients 


     PseudoPot. # 4 for Te read from file:
     ./Te.pbe-n-kjpaw_psl.1.0.0.UPF
     MD5 check sum: 960f80ef2db6fd2ef753b89a550c1479
     Pseudo is Projector augmented-wave + core cor, Zval =  6.0
     Generated using &quot;atomic&quot; code by A. Dal Corso  v.6.3
     Shape of augmentation charge: PSQ
     Using radial grid of 1245 points,  6 beta functions with: 
                l(1) =   0
                l(2) =   0
                l(3) =   1
                l(4) =   1
                l(5) =   2
                l(6) =   2
     Q(r) pseudized with 0 coefficients 


     atomic species   valence    mass     pseudopotential
        Mn1           15.00    54.93800     Mn( 1.00)
        Mn2           15.00    54.93800     Mn( 1.00)
        Bi            15.00   208.98000     Bi( 1.00)
        Te             6.00   127.60300     Te( 1.00)

     Starting magnetic structure 
     atomic species   magnetization
        Mn1          0.333
        Mn2         -0.333
        Bi           0.000
        Te           0.000

     No symmetry found


                                    s                        frac. trans.

      isym =  1     identity                                     

 cryst.   s( 1) = (     1          0          0      )
                  (     0          1          0      )
                  (     0          0          1      )

 cart.    s( 1) = (  1.0000000  0.0000000  0.0000000 )
                  (  0.0000000  1.0000000  0.0000000 )
                  (  0.0000000  0.0000000  1.0000000 )


   Cartesian axes

     site n.     atom                  positions (alat units)
         1           Mn1 tau(   1) = (   0.0000000   0.0000000   0.0000000  )
         2           Mn2 tau(   2) = (   0.0000000  -0.0000005   1.4937325  )
         3           Bi  tau(   3) = (   0.0000000  -0.0000002   0.6346869  )
         4           Bi  tau(   4) = (   0.0000000  -0.0000007   2.1284194  )
         5           Bi  tau(   5) = (   0.0000000  -0.0000003   0.8590455  )
         6           Bi  tau(   6) = (   0.0000000  -0.0000008   2.3527780  )
         7           Te  tau(   7) = (   0.0000000  -0.0000001   0.1992042  )
         8           Te  tau(   8) = (   0.0000000  -0.0000006   1.6929366  )
         9           Te  tau(   9) = (   0.0000000  -0.0000004   1.2945283  )
        10           Te  tau(  10) = (   0.0000000  -0.0000009   2.7882608  )
        11           Te  tau(  11) = (   0.0000000  -0.0000001   0.4392470  )
        12           Te  tau(  12) = (   0.0000000  -0.0000006   1.9329794  )
        13           Te  tau(  13) = (   0.0000000  -0.0000004   1.0544855  )
        14           Te  tau(  14) = (   0.0000000  -0.0000009   2.5482179  )

     --------------------------------------------
     DFT-D3 Dispersion Correction (3-body terms):
     --------------------------------------------
       Reference C6 values for interpolation: 

         atom   Coordination number   C6
         Mn1        0.000          1605.50
         Mn1        1.641           479.11
         Mn1        9.885           227.69
         Mn2        0.000          1605.50
         Mn2        1.641           479.11
         Mn2        9.885           227.69
         Te         0.000           851.07
         Te         0.981           850.20
         Te         1.964           837.16
         Bi         0.000          1235.06
         Bi         0.982          1188.09
         Bi         1.966          1132.10
         Bi         2.950          1067.76

       Values used:

         atom   Coordination number  R0_AB[au]  C6      C8
         Mn1        3.848            3.351    479.11  48433.79
         Mn2        3.848            3.351    479.11  48433.79
         Bi         5.275            3.890   1067.76 147315.96
         Bi         5.275            3.890   1067.76 147315.96
         Bi         5.275            3.890   1067.76 147315.96
         Bi         5.275            3.890   1067.76 147315.96
         Te         3.328            3.676    837.16  84978.06
         Te         3.328            3.676    837.16  84978.06
         Te         3.328            3.676    837.16  84978.06
         Te         3.328            3.676    837.16  84978.06
         Te         4.238            3.676    837.16  84978.05
         Te         4.238            3.676    837.16  84978.05
         Te         4.238            3.676    837.16  84978.05
         Te         4.238            3.676    837.16  84978.05

         Molecular C6 ( Ry / a.u.^6 ) =    164642.77


   Crystallographic axes

     site n.     atom                  positions (cryst. coord.)
         1           Mn1 tau(   1) = (  0.0000000  0.0000000  0.0000000  )
         2           Mn2 tau(   2) = (  0.5000000  0.5000000  0.5000000  )
         3           Bi  tau(   3) = (  0.2124500  0.2124500  0.2124500  )
         4           Bi  tau(   4) = (  0.7124500  0.7124500  0.7124500  )
         5           Bi  tau(   5) = (  0.2875500  0.2875500  0.2875500  )
         6           Bi  tau(   6) = (  0.7875500  0.7875500  0.7875500  )
         7           Te  tau(   7) = (  0.0666800  0.0666800  0.0666800  )
         8           Te  tau(   8) = (  0.5666800  0.5666800  0.5666800  )
         9           Te  tau(   9) = (  0.4333200  0.4333200  0.4333200  )
        10           Te  tau(  10) = (  0.9333200  0.9333200  0.9333200  )
        11           Te  tau(  11) = (  0.1470300  0.1470300  0.1470300  )
        12           Te  tau(  12) = (  0.6470300  0.6470300  0.6470300  )
        13           Te  tau(  13) = (  0.3529700  0.3529700  0.3529700  )
        14           Te  tau(  14) = (  0.8529700  0.8529700  0.8529700  )

     number of k points=   216  Marzari-Vanderbilt smearing, width (Ry)=  0.0020
                       cart. coord. in units 2pi/alat
        k(    1) = (   0.0000000   0.0000000   0.0000000), wk =   0.0046296
        k(    2) = (  -1.0537190  -0.6083660   0.0557885), wk =   0.0046296
        k(    3) = (  -2.1074379  -1.2167320   0.1115769), wk =   0.0046296
        k(    4) = (  -3.1611569  -1.8250979   0.1673654), wk =   0.0046296
        k(    5) = (  -4.2148758  -2.4334639   0.2231538), wk =   0.0046296
        k(    6) = (  -5.2685948  -3.0418299   0.2789423), wk =   0.0046296
        k(    7) = (   0.0000000   1.2167320   0.0557891), wk =   0.0046296
        k(    8) = (  -1.0537190   0.6083660   0.1115775), wk =   0.0046296
        k(    9) = (  -2.1074379   0.0000000   0.1673660), wk =   0.0046296
        k(   10) = (  -3.1611569  -0.6083660   0.2231544), wk =   0.0046296
        k(   11) = (  -4.2148758  -1.2167320   0.2789429), wk =   0.0046296
        k(   12) = (  -5.2685948  -1.8250979   0.3347314), wk =   0.0046296
        k(   13) = (   0.0000000   2.4334639   0.1115781), wk =   0.0046296
        k(   14) = (  -1.0537190   1.8250979   0.1673666), wk =   0.0046296
        k(   15) = (  -2.1074379   1.2167320   0.2231551), wk =   0.0046296
        k(   16) = (  -3.1611569   0.6083660   0.2789435), wk =   0.0046296
        k(   17) = (  -4.2148758  -0.0000000   0.3347320), wk =   0.0046296
        k(   18) = (  -5.2685948  -0.6083660   0.3905204), wk =   0.0046296
        k(   19) = (   0.0000000   3.6501959   0.1673672), wk =   0.0046296
        k(   20) = (  -1.0537190   3.0418299   0.2231557), wk =   0.0046296
        k(   21) = (  -2.1074379   2.4334639   0.2789441), wk =   0.0046296
        k(   22) = (  -3.1611569   1.8250979   0.3347326), wk =   0.0046296
        k(   23) = (  -4.2148758   1.2167320   0.3905210), wk =   0.0046296
        k(   24) = (  -5.2685948   0.6083660   0.4463095), wk =   0.0046296
        k(   25) = (   0.0000000   4.8669278   0.2231563), wk =   0.0046296
        k(   26) = (  -1.0537190   4.2585619   0.2789447), wk =   0.0046296
        k(   27) = (  -2.1074379   3.6501959   0.3347332), wk =   0.0046296
        k(   28) = (  -3.1611569   3.0418299   0.3905216), wk =   0.0046296
        k(   29) = (  -4.2148758   2.4334639   0.4463101), wk =   0.0046296
        k(   30) = (  -5.2685948   1.8250979   0.5020986), wk =   0.0046296
        k(   31) = (   0.0000000   6.0836598   0.2789453), wk =   0.0046296
        k(   32) = (  -1.0537190   5.4752938   0.3347338), wk =   0.0046296
        k(   33) = (  -2.1074379   4.8669278   0.3905223), wk =   0.0046296
        k(   34) = (  -3.1611569   4.2585619   0.4463107), wk =   0.0046296
        k(   35) = (  -4.2148758   3.6501959   0.5020992), wk =   0.0046296
        k(   36) = (  -5.2685948   3.0418299   0.5578876), wk =   0.0046296
        k(   37) = (   1.0537190  -0.6083660   0.0557885), wk =   0.0046296
        k(   38) = (   0.0000000  -1.2167320   0.1115769), wk =   0.0046296
        k(   39) = (  -1.0537190  -1.8250979   0.1673654), wk =   0.0046296
        k(   40) = (  -2.1074379  -2.4334639   0.2231538), wk =   0.0046296
        k(   41) = (  -3.1611569  -3.0418299   0.2789423), wk =   0.0046296
        k(   42) = (  -4.2148758  -3.6501959   0.3347307), wk =   0.0046296
        k(   43) = (   1.0537190   0.6083660   0.1115775), wk =   0.0046296
        k(   44) = (   0.0000000   0.0000000   0.1673660), wk =   0.0046296
        k(   45) = (  -1.0537190  -0.6083660   0.2231544), wk =   0.0046296
        k(   46) = (  -2.1074379  -1.2167320   0.2789429), wk =   0.0046296
        k(   47) = (  -3.1611569  -1.8250979   0.3347314), wk =   0.0046296
        k(   48) = (  -4.2148758  -2.4334639   0.3905198), wk =   0.0046296
        k(   49) = (   1.0537190   1.8250979   0.1673666), wk =   0.0046296
        k(   50) = (   0.0000000   1.2167320   0.2231551), wk =   0.0046296
        k(   51) = (  -1.0537190   0.6083660   0.2789435), wk =   0.0046296
        k(   52) = (  -2.1074379  -0.0000000   0.3347320), wk =   0.0046296
        k(   53) = (  -3.1611569  -0.6083660   0.3905204), wk =   0.0046296
        k(   54) = (  -4.2148758  -1.2167320   0.4463089), wk =   0.0046296
        k(   55) = (   1.0537190   3.0418299   0.2231557), wk =   0.0046296
        k(   56) = (   0.0000000   2.4334639   0.2789441), wk =   0.0046296
        k(   57) = (  -1.0537190   1.8250979   0.3347326), wk =   0.0046296
        k(   58) = (  -2.1074379   1.2167320   0.3905210), wk =   0.0046296
        k(   59) = (  -3.1611569   0.6083660   0.4463095), wk =   0.0046296
        k(   60) = (  -4.2148758   0.0000000   0.5020979), wk =   0.0046296
        k(   61) = (   1.0537190   4.2585619   0.2789447), wk =   0.0046296
        k(   62) = (   0.0000000   3.6501959   0.3347332), wk =   0.0046296
        k(   63) = (  -1.0537190   3.0418299   0.3905216), wk =   0.0046296
        k(   64) = (  -2.1074379   2.4334639   0.4463101), wk =   0.0046296
        k(   65) = (  -3.1611569   1.8250979   0.5020986), wk =   0.0046296
        k(   66) = (  -4.2148758   1.2167320   0.5578870), wk =   0.0046296
        k(   67) = (   1.0537190   5.4752938   0.3347338), wk =   0.0046296
        k(   68) = (   0.0000000   4.8669278   0.3905223), wk =   0.0046296
        k(   69) = (  -1.0537190   4.2585619   0.4463107), wk =   0.0046296
        k(   70) = (  -2.1074379   3.6501959   0.5020992), wk =   0.0046296
        k(   71) = (  -3.1611569   3.0418299   0.5578876), wk =   0.0046296
        k(   72) = (  -4.2148758   2.4334639   0.6136761), wk =   0.0046296
        k(   73) = (   2.1074379  -1.2167320   0.1115769), wk =   0.0046296
        k(   74) = (   1.0537190  -1.8250979   0.1673654), wk =   0.0046296
        k(   75) = (   0.0000000  -2.4334639   0.2231538), wk =   0.0046296
        k(   76) = (  -1.0537190  -3.0418299   0.2789423), wk =   0.0046296
        k(   77) = (  -2.1074379  -3.6501959   0.3347307), wk =   0.0046296
        k(   78) = (  -3.1611569  -4.2585619   0.3905192), wk =   0.0046296
        k(   79) = (   2.1074379   0.0000000   0.1673660), wk =   0.0046296
        k(   80) = (   1.0537190  -0.6083660   0.2231544), wk =   0.0046296
        k(   81) = (   0.0000000  -1.2167320   0.2789429), wk =   0.0046296
        k(   82) = (  -1.0537190  -1.8250979   0.3347314), wk =   0.0046296
        k(   83) = (  -2.1074379  -2.4334639   0.3905198), wk =   0.0046296
        k(   84) = (  -3.1611569  -3.0418299   0.4463083), wk =   0.0046296
        k(   85) = (   2.1074379   1.2167320   0.2231551), wk =   0.0046296
        k(   86) = (   1.0537190   0.6083660   0.2789435), wk =   0.0046296
        k(   87) = (   0.0000000   0.0000000   0.3347320), wk =   0.0046296
        k(   88) = (  -1.0537190  -0.6083660   0.3905204), wk =   0.0046296
        k(   89) = (  -2.1074379  -1.2167320   0.4463089), wk =   0.0046296
        k(   90) = (  -3.1611569  -1.8250979   0.5020973), wk =   0.0046296
        k(   91) = (   2.1074379   2.4334639   0.2789441), wk =   0.0046296
        k(   92) = (   1.0537190   1.8250979   0.3347326), wk =   0.0046296
        k(   93) = (   0.0000000   1.2167320   0.3905210), wk =   0.0046296
        k(   94) = (  -1.0537190   0.6083660   0.4463095), wk =   0.0046296
        k(   95) = (  -2.1074379  -0.0000000   0.5020979), wk =   0.0046296
        k(   96) = (  -3.1611569  -0.6083660   0.5578864), wk =   0.0046296
        k(   97) = (   2.1074379   3.6501959   0.3347332), wk =   0.0046296
        k(   98) = (   1.0537190   3.0418299   0.3905216), wk =   0.0046296
        k(   99) = (   0.0000000   2.4334639   0.4463101), wk =   0.0046296
        k(  100) = (  -1.0537190   1.8250979   0.5020986), wk =   0.0046296
        k(  101) = (  -2.1074379   1.2167320   0.5578870), wk =   0.0046296
        k(  102) = (  -3.1611569   0.6083660   0.6136755), wk =   0.0046296
        k(  103) = (   2.1074379   4.8669278   0.3905223), wk =   0.0046296
        k(  104) = (   1.0537190   4.2585619   0.4463107), wk =   0.0046296
        k(  105) = (   0.0000000   3.6501959   0.5020992), wk =   0.0046296
        k(  106) = (  -1.0537190   3.0418299   0.5578876), wk =   0.0046296
        k(  107) = (  -2.1074379   2.4334639   0.6136761), wk =   0.0046296
        k(  108) = (  -3.1611569   1.8250979   0.6694645), wk =   0.0046296
        k(  109) = (   3.1611569  -1.8250979   0.1673654), wk =   0.0046296
        k(  110) = (   2.1074379  -2.4334639   0.2231538), wk =   0.0046296
        k(  111) = (   1.0537190  -3.0418299   0.2789423), wk =   0.0046296
        k(  112) = (   0.0000000  -3.6501959   0.3347307), wk =   0.0046296
        k(  113) = (  -1.0537190  -4.2585619   0.3905192), wk =   0.0046296
        k(  114) = (  -2.1074379  -4.8669278   0.4463077), wk =   0.0046296
        k(  115) = (   3.1611569  -0.6083660   0.2231544), wk =   0.0046296
        k(  116) = (   2.1074379  -1.2167320   0.2789429), wk =   0.0046296
        k(  117) = (   1.0537190  -1.8250979   0.3347314), wk =   0.0046296
        k(  118) = (   0.0000000  -2.4334639   0.3905198), wk =   0.0046296
        k(  119) = (  -1.0537190  -3.0418299   0.4463083), wk =   0.0046296
        k(  120) = (  -2.1074379  -3.6501959   0.5020967), wk =   0.0046296
        k(  121) = (   3.1611569   0.6083660   0.2789435), wk =   0.0046296
        k(  122) = (   2.1074379  -0.0000000   0.3347320), wk =   0.0046296
        k(  123) = (   1.0537190  -0.6083660   0.3905204), wk =   0.0046296
        k(  124) = (   0.0000000  -1.2167320   0.4463089), wk =   0.0046296
        k(  125) = (  -1.0537190  -1.8250979   0.5020973), wk =   0.0046296
        k(  126) = (  -2.1074379  -2.4334639   0.5578858), wk =   0.0046296
        k(  127) = (   3.1611569   1.8250979   0.3347326), wk =   0.0046296
        k(  128) = (   2.1074379   1.2167320   0.3905210), wk =   0.0046296
        k(  129) = (   1.0537190   0.6083660   0.4463095), wk =   0.0046296
        k(  130) = (   0.0000000   0.0000000   0.5020979), wk =   0.0046296
        k(  131) = (  -1.0537190  -0.6083660   0.5578864), wk =   0.0046296
        k(  132) = (  -2.1074379  -1.2167320   0.6136749), wk =   0.0046296
        k(  133) = (   3.1611569   3.0418299   0.3905216), wk =   0.0046296
        k(  134) = (   2.1074379   2.4334639   0.4463101), wk =   0.0046296
        k(  135) = (   1.0537190   1.8250979   0.5020986), wk =   0.0046296
        k(  136) = (   0.0000000   1.2167320   0.5578870), wk =   0.0046296
        k(  137) = (  -1.0537190   0.6083660   0.6136755), wk =   0.0046296
        k(  138) = (  -2.1074379   0.0000000   0.6694639), wk =   0.0046296
        k(  139) = (   3.1611569   4.2585619   0.4463107), wk =   0.0046296
        k(  140) = (   2.1074379   3.6501959   0.5020992), wk =   0.0046296
        k(  141) = (   1.0537190   3.0418299   0.5578876), wk =   0.0046296
        k(  142) = (   0.0000000   2.4334639   0.6136761), wk =   0.0046296
        k(  143) = (  -1.0537190   1.8250979   0.6694645), wk =   0.0046296
        k(  144) = (  -2.1074379   1.2167320   0.7252530), wk =   0.0046296
        k(  145) = (   4.2148758  -2.4334639   0.2231538), wk =   0.0046296
        k(  146) = (   3.1611569  -3.0418299   0.2789423), wk =   0.0046296
        k(  147) = (   2.1074379  -3.6501959   0.3347307), wk =   0.0046296
        k(  148) = (   1.0537190  -4.2585619   0.3905192), wk =   0.0046296
        k(  149) = (   0.0000000  -4.8669278   0.4463077), wk =   0.0046296
        k(  150) = (  -1.0537190  -5.4752938   0.5020961), wk =   0.0046296
        k(  151) = (   4.2148758  -1.2167320   0.2789429), wk =   0.0046296
        k(  152) = (   3.1611569  -1.8250979   0.3347314), wk =   0.0046296
        k(  153) = (   2.1074379  -2.4334639   0.3905198), wk =   0.0046296
        k(  154) = (   1.0537190  -3.0418299   0.4463083), wk =   0.0046296
        k(  155) = (   0.0000000  -3.6501959   0.5020967), wk =   0.0046296
        k(  156) = (  -1.0537190  -4.2585619   0.5578852), wk =   0.0046296
        k(  157) = (   4.2148758  -0.0000000   0.3347320), wk =   0.0046296
        k(  158) = (   3.1611569  -0.6083660   0.3905204), wk =   0.0046296
        k(  159) = (   2.1074379  -1.2167320   0.4463089), wk =   0.0046296
        k(  160) = (   1.0537190  -1.8250979   0.5020973), wk =   0.0046296
        k(  161) = (   0.0000000  -2.4334639   0.5578858), wk =   0.0046296
        k(  162) = (  -1.0537190  -3.0418299   0.6136743), wk =   0.0046296
        k(  163) = (   4.2148758   1.2167320   0.3905210), wk =   0.0046296
        k(  164) = (   3.1611569   0.6083660   0.4463095), wk =   0.0046296
        k(  165) = (   2.1074379  -0.0000000   0.5020979), wk =   0.0046296
        k(  166) = (   1.0537190  -0.6083660   0.5578864), wk =   0.0046296
        k(  167) = (   0.0000000  -1.2167320   0.6136749), wk =   0.0046296
        k(  168) = (  -1.0537190  -1.8250979   0.6694633), wk =   0.0046296
        k(  169) = (   4.2148758   2.4334639   0.4463101), wk =   0.0046296
        k(  170) = (   3.1611569   1.8250979   0.5020986), wk =   0.0046296
        k(  171) = (   2.1074379   1.2167320   0.5578870), wk =   0.0046296
        k(  172) = (   1.0537190   0.6083660   0.6136755), wk =   0.0046296
        k(  173) = (   0.0000000   0.0000000   0.6694639), wk =   0.0046296
        k(  174) = (  -1.0537190  -0.6083660   0.7252524), wk =   0.0046296
        k(  175) = (   4.2148758   3.6501959   0.5020992), wk =   0.0046296
        k(  176) = (   3.1611569   3.0418299   0.5578876), wk =   0.0046296
        k(  177) = (   2.1074379   2.4334639   0.6136761), wk =   0.0046296
        k(  178) = (   1.0537190   1.8250979   0.6694645), wk =   0.0046296
        k(  179) = (   0.0000000   1.2167320   0.7252530), wk =   0.0046296
        k(  180) = (  -1.0537190   0.6083660   0.7810415), wk =   0.0046296
        k(  181) = (   5.2685948  -3.0418299   0.2789423), wk =   0.0046296
        k(  182) = (   4.2148758  -3.6501959   0.3347307), wk =   0.0046296
        k(  183) = (   3.1611569  -4.2585619   0.3905192), wk =   0.0046296
        k(  184) = (   2.1074379  -4.8669278   0.4463077), wk =   0.0046296
        k(  185) = (   1.0537190  -5.4752938   0.5020961), wk =   0.0046296
        k(  186) = (   0.0000000  -6.0836598   0.5578846), wk =   0.0046296
        k(  187) = (   5.2685948  -1.8250979   0.3347314), wk =   0.0046296
        k(  188) = (   4.2148758  -2.4334639   0.3905198), wk =   0.0046296
        k(  189) = (   3.1611569  -3.0418299   0.4463083), wk =   0.0046296
        k(  190) = (   2.1074379  -3.6501959   0.5020967), wk =   0.0046296
        k(  191) = (   1.0537190  -4.2585619   0.5578852), wk =   0.0046296
        k(  192) = (   0.0000000  -4.8669278   0.6136736), wk =   0.0046296
        k(  193) = (   5.2685948  -0.6083660   0.3905204), wk =   0.0046296
        k(  194) = (   4.2148758  -1.2167320   0.4463089), wk =   0.0046296
        k(  195) = (   3.1611569  -1.8250979   0.5020973), wk =   0.0046296
        k(  196) = (   2.1074379  -2.4334639   0.5578858), wk =   0.0046296
        k(  197) = (   1.0537190  -3.0418299   0.6136743), wk =   0.0046296
        k(  198) = (   0.0000000  -3.6501959   0.6694627), wk =   0.0046296
        k(  199) = (   5.2685948   0.6083660   0.4463095), wk =   0.0046296
        k(  200) = (   4.2148758   0.0000000   0.5020979), wk =   0.0046296
        k(  201) = (   3.1611569  -0.6083660   0.5578864), wk =   0.0046296
        k(  202) = (   2.1074379  -1.2167320   0.6136749), wk =   0.0046296
        k(  203) = (   1.0537190  -1.8250979   0.6694633), wk =   0.0046296
        k(  204) = (   0.0000000  -2.4334639   0.7252518), wk =   0.0046296
        k(  205) = (   5.2685948   1.8250979   0.5020986), wk =   0.0046296
        k(  206) = (   4.2148758   1.2167320   0.5578870), wk =   0.0046296
        k(  207) = (   3.1611569   0.6083660   0.6136755), wk =   0.0046296
        k(  208) = (   2.1074379   0.0000000   0.6694639), wk =   0.0046296
        k(  209) = (   1.0537190  -0.6083660   0.7252524), wk =   0.0046296
        k(  210) = (   0.0000000  -1.2167320   0.7810408), wk =   0.0046296
        k(  211) = (   5.2685948   3.0418299   0.5578876), wk =   0.0046296
        k(  212) = (   4.2148758   2.4334639   0.6136761), wk =   0.0046296
        k(  213) = (   3.1611569   1.8250979   0.6694645), wk =   0.0046296
        k(  214) = (   2.1074379   1.2167320   0.7252530), wk =   0.0046296
        k(  215) = (   1.0537190   0.6083660   0.7810415), wk =   0.0046296
        k(  216) = (   0.0000000   0.0000000   0.8368299), wk =   0.0046296

                       cryst. coord.
        k(    1) = (   0.0000000   0.0000000   0.0000000), wk =   0.0046296
        k(    2) = (   0.0000000  -0.0000000   0.1666667), wk =   0.0046296
        k(    3) = (  -0.0000000   0.0000000   0.3333333), wk =   0.0046296
        k(    4) = (   0.0000000   0.0000000   0.5000000), wk =   0.0046296
        k(    5) = (   0.0000000  -0.0000000   0.6666667), wk =   0.0046296
        k(    6) = (   0.0000000   0.0000000   0.8333333), wk =   0.0046296
        k(    7) = (   0.0000000   0.1666667   0.0000000), wk =   0.0046296
        k(    8) = (   0.0000000   0.1666667   0.1666667), wk =   0.0046296
        k(    9) = (   0.0000000   0.1666667   0.3333333), wk =   0.0046296
        k(   10) = (  -0.0000000   0.1666667   0.5000000), wk =   0.0046296
        k(   11) = (   0.0000000   0.1666667   0.6666667), wk =   0.0046296
        k(   12) = (   0.0000000   0.1666667   0.8333333), wk =   0.0046296
        k(   13) = (   0.0000000   0.3333333   0.0000000), wk =   0.0046296
        k(   14) = (   0.0000000   0.3333333   0.1666667), wk =   0.0046296
        k(   15) = (   0.0000000   0.3333333   0.3333333), wk =   0.0046296
        k(   16) = (   0.0000000   0.3333333   0.5000000), wk =   0.0046296
        k(   17) = (   0.0000000   0.3333333   0.6666667), wk =   0.0046296
        k(   18) = (   0.0000000   0.3333333   0.8333333), wk =   0.0046296
        k(   19) = (   0.0000000   0.5000000   0.0000000), wk =   0.0046296
        k(   20) = (   0.0000000   0.5000000   0.1666667), wk =   0.0046296
        k(   21) = (   0.0000000   0.5000000   0.3333333), wk =   0.0046296
        k(   22) = (   0.0000000   0.5000000   0.5000000), wk =   0.0046296
        k(   23) = (   0.0000000   0.5000000   0.6666667), wk =   0.0046296
        k(   24) = (   0.0000000   0.5000000   0.8333333), wk =   0.0046296
        k(   25) = (   0.0000000   0.6666667   0.0000000), wk =   0.0046296
        k(   26) = (   0.0000000   0.6666667   0.1666667), wk =   0.0046296
        k(   27) = (  -0.0000000   0.6666667   0.3333333), wk =   0.0046296
        k(   28) = (   0.0000000   0.6666667   0.5000000), wk =   0.0046296
        k(   29) = (   0.0000000   0.6666667   0.6666667), wk =   0.0046296
        k(   30) = (   0.0000000   0.6666667   0.8333333), wk =   0.0046296
        k(   31) = (   0.0000000   0.8333333   0.0000000), wk =   0.0046296
        k(   32) = (   0.0000000   0.8333333   0.1666667), wk =   0.0046296
        k(   33) = (   0.0000000   0.8333333   0.3333333), wk =   0.0046296
        k(   34) = (   0.0000000   0.8333333   0.5000000), wk =   0.0046296
        k(   35) = (   0.0000000   0.8333333   0.6666667), wk =   0.0046296
        k(   36) = (   0.0000000   0.8333333   0.8333333), wk =   0.0046296
        k(   37) = (   0.1666667  -0.0000000   0.0000000), wk =   0.0046296
        k(   38) = (   0.1666667  -0.0000000   0.1666667), wk =   0.0046296
        k(   39) = (   0.1666667   0.0000000   0.3333333), wk =   0.0046296
        k(   40) = (   0.1666667   0.0000000   0.5000000), wk =   0.0046296
        k(   41) = (   0.1666667  -0.0000000   0.6666667), wk =   0.0046296
        k(   42) = (   0.1666667   0.0000000   0.8333333), wk =   0.0046296
        k(   43) = (   0.1666667   0.1666667   0.0000000), wk =   0.0046296
        k(   44) = (   0.1666667   0.1666667   0.1666667), wk =   0.0046296
        k(   45) = (   0.1666667   0.1666667   0.3333333), wk =   0.0046296
        k(   46) = (   0.1666667   0.1666667   0.5000000), wk =   0.0046296
        k(   47) = (   0.1666667   0.1666667   0.6666667), wk =   0.0046296
        k(   48) = (   0.1666667   0.1666667   0.8333333), wk =   0.0046296
        k(   49) = (   0.1666667   0.3333333   0.0000000), wk =   0.0046296
        k(   50) = (   0.1666667   0.3333333   0.1666667), wk =   0.0046296
        k(   51) = (   0.1666667   0.3333333   0.3333333), wk =   0.0046296
        k(   52) = (   0.1666667   0.3333333   0.5000000), wk =   0.0046296
        k(   53) = (   0.1666667   0.3333333   0.6666667), wk =   0.0046296
        k(   54) = (   0.1666667   0.3333333   0.8333333), wk =   0.0046296
        k(   55) = (   0.1666667   0.5000000   0.0000000), wk =   0.0046296
        k(   56) = (   0.1666667   0.5000000   0.1666667), wk =   0.0046296
        k(   57) = (   0.1666667   0.5000000   0.3333333), wk =   0.0046296
        k(   58) = (   0.1666667   0.5000000   0.5000000), wk =   0.0046296
        k(   59) = (   0.1666667   0.5000000   0.6666667), wk =   0.0046296
        k(   60) = (   0.1666667   0.5000000   0.8333333), wk =   0.0046296
        k(   61) = (   0.1666667   0.6666667   0.0000000), wk =   0.0046296
        k(   62) = (   0.1666667   0.6666667   0.1666667), wk =   0.0046296
        k(   63) = (   0.1666667   0.6666667   0.3333333), wk =   0.0046296
        k(   64) = (   0.1666667   0.6666667   0.5000000), wk =   0.0046296
        k(   65) = (   0.1666667   0.6666667   0.6666667), wk =   0.0046296
        k(   66) = (   0.1666667   0.6666667   0.8333333), wk =   0.0046296
        k(   67) = (   0.1666667   0.8333333   0.0000000), wk =   0.0046296
        k(   68) = (   0.1666667   0.8333333   0.1666667), wk =   0.0046296
        k(   69) = (   0.1666667   0.8333333   0.3333333), wk =   0.0046296
        k(   70) = (   0.1666667   0.8333333   0.5000000), wk =   0.0046296
        k(   71) = (   0.1666667   0.8333333   0.6666667), wk =   0.0046296
        k(   72) = (   0.1666667   0.8333333   0.8333333), wk =   0.0046296
        k(   73) = (   0.3333333   0.0000000  -0.0000000), wk =   0.0046296
        k(   74) = (   0.3333333   0.0000000   0.1666667), wk =   0.0046296
        k(   75) = (   0.3333333   0.0000000   0.3333333), wk =   0.0046296
        k(   76) = (   0.3333333   0.0000000   0.5000000), wk =   0.0046296
        k(   77) = (   0.3333333   0.0000000   0.6666667), wk =   0.0046296
        k(   78) = (   0.3333333   0.0000000   0.8333333), wk =   0.0046296
        k(   79) = (   0.3333333   0.1666667   0.0000000), wk =   0.0046296
        k(   80) = (   0.3333333   0.1666667   0.1666667), wk =   0.0046296
        k(   81) = (   0.3333333   0.1666667   0.3333333), wk =   0.0046296
        k(   82) = (   0.3333333   0.1666667   0.5000000), wk =   0.0046296
        k(   83) = (   0.3333333   0.1666667   0.6666667), wk =   0.0046296
        k(   84) = (   0.3333333   0.1666667   0.8333333), wk =   0.0046296
        k(   85) = (   0.3333333   0.3333333   0.0000000), wk =   0.0046296
        k(   86) = (   0.3333333   0.3333333   0.1666667), wk =   0.0046296
        k(   87) = (   0.3333333   0.3333333   0.3333333), wk =   0.0046296
        k(   88) = (   0.3333333   0.3333333   0.5000000), wk =   0.0046296
        k(   89) = (   0.3333333   0.3333333   0.6666667), wk =   0.0046296
        k(   90) = (   0.3333333   0.3333333   0.8333333), wk =   0.0046296
        k(   91) = (   0.3333333   0.5000000   0.0000000), wk =   0.0046296
        k(   92) = (   0.3333333   0.5000000   0.1666667), wk =   0.0046296
        k(   93) = (   0.3333333   0.5000000   0.3333333), wk =   0.0046296
        k(   94) = (   0.3333333   0.5000000   0.5000000), wk =   0.0046296
        k(   95) = (   0.3333333   0.5000000   0.6666667), wk =   0.0046296
        k(   96) = (   0.3333333   0.5000000   0.8333333), wk =   0.0046296
        k(   97) = (   0.3333333   0.6666667  -0.0000000), wk =   0.0046296
        k(   98) = (   0.3333333   0.6666667   0.1666667), wk =   0.0046296
        k(   99) = (   0.3333333   0.6666667   0.3333333), wk =   0.0046296
        k(  100) = (   0.3333333   0.6666667   0.5000000), wk =   0.0046296
        k(  101) = (   0.3333333   0.6666667   0.6666667), wk =   0.0046296
        k(  102) = (   0.3333333   0.6666667   0.8333333), wk =   0.0046296
        k(  103) = (   0.3333333   0.8333333   0.0000000), wk =   0.0046296
        k(  104) = (   0.3333333   0.8333333   0.1666667), wk =   0.0046296
        k(  105) = (   0.3333333   0.8333333   0.3333333), wk =   0.0046296
        k(  106) = (   0.3333333   0.8333333   0.5000000), wk =   0.0046296
        k(  107) = (   0.3333333   0.8333333   0.6666667), wk =   0.0046296
        k(  108) = (   0.3333333   0.8333333   0.8333333), wk =   0.0046296
        k(  109) = (   0.5000000   0.0000000   0.0000000), wk =   0.0046296
        k(  110) = (   0.5000000   0.0000000   0.1666667), wk =   0.0046296
        k(  111) = (   0.5000000   0.0000000   0.3333333), wk =   0.0046296
        k(  112) = (   0.5000000   0.0000000   0.5000000), wk =   0.0046296
        k(  113) = (   0.5000000  -0.0000000   0.6666667), wk =   0.0046296
        k(  114) = (   0.5000000   0.0000000   0.8333333), wk =   0.0046296
        k(  115) = (   0.5000000   0.1666667  -0.0000000), wk =   0.0046296
        k(  116) = (   0.5000000   0.1666667   0.1666667), wk =   0.0046296
        k(  117) = (   0.5000000   0.1666667   0.3333333), wk =   0.0046296
        k(  118) = (   0.5000000   0.1666667   0.5000000), wk =   0.0046296
        k(  119) = (   0.5000000   0.1666667   0.6666667), wk =   0.0046296
        k(  120) = (   0.5000000   0.1666667   0.8333333), wk =   0.0046296
        k(  121) = (   0.5000000   0.3333333   0.0000000), wk =   0.0046296
        k(  122) = (   0.5000000   0.3333333   0.1666667), wk =   0.0046296
        k(  123) = (   0.5000000   0.3333333   0.3333333), wk =   0.0046296
        k(  124) = (   0.5000000   0.3333333   0.5000000), wk =   0.0046296
        k(  125) = (   0.5000000   0.3333333   0.6666667), wk =   0.0046296
        k(  126) = (   0.5000000   0.3333333   0.8333333), wk =   0.0046296
        k(  127) = (   0.5000000   0.5000000   0.0000000), wk =   0.0046296
        k(  128) = (   0.5000000   0.5000000   0.1666667), wk =   0.0046296
        k(  129) = (   0.5000000   0.5000000   0.3333333), wk =   0.0046296
        k(  130) = (   0.5000000   0.5000000   0.5000000), wk =   0.0046296
        k(  131) = (   0.5000000   0.5000000   0.6666667), wk =   0.0046296
        k(  132) = (   0.5000000   0.5000000   0.8333333), wk =   0.0046296
        k(  133) = (   0.5000000   0.6666667   0.0000000), wk =   0.0046296
        k(  134) = (   0.5000000   0.6666667   0.1666667), wk =   0.0046296
        k(  135) = (   0.5000000   0.6666667   0.3333333), wk =   0.0046296
        k(  136) = (   0.5000000   0.6666667   0.5000000), wk =   0.0046296
        k(  137) = (   0.5000000   0.6666667   0.6666667), wk =   0.0046296
        k(  138) = (   0.5000000   0.6666667   0.8333333), wk =   0.0046296
        k(  139) = (   0.5000000   0.8333333   0.0000000), wk =   0.0046296
        k(  140) = (   0.5000000   0.8333333   0.1666667), wk =   0.0046296
        k(  141) = (   0.5000000   0.8333333   0.3333333), wk =   0.0046296
        k(  142) = (   0.5000000   0.8333333   0.5000000), wk =   0.0046296
        k(  143) = (   0.5000000   0.8333333   0.6666667), wk =   0.0046296
        k(  144) = (   0.5000000   0.8333333   0.8333333), wk =   0.0046296
        k(  145) = (   0.6666667  -0.0000000   0.0000000), wk =   0.0046296
        k(  146) = (   0.6666667  -0.0000000   0.1666667), wk =   0.0046296
        k(  147) = (   0.6666667   0.0000000   0.3333333), wk =   0.0046296
        k(  148) = (   0.6666667  -0.0000000   0.5000000), wk =   0.0046296
        k(  149) = (   0.6666667  -0.0000000   0.6666667), wk =   0.0046296
        k(  150) = (   0.6666667  -0.0000000   0.8333333), wk =   0.0046296
        k(  151) = (   0.6666667   0.1666667   0.0000000), wk =   0.0046296
        k(  152) = (   0.6666667   0.1666667   0.1666667), wk =   0.0046296
        k(  153) = (   0.6666667   0.1666667   0.3333333), wk =   0.0046296
        k(  154) = (   0.6666667   0.1666667   0.5000000), wk =   0.0046296
        k(  155) = (   0.6666667   0.1666667   0.6666667), wk =   0.0046296
        k(  156) = (   0.6666667   0.1666667   0.8333333), wk =   0.0046296
        k(  157) = (   0.6666667   0.3333333   0.0000000), wk =   0.0046296
        k(  158) = (   0.6666667   0.3333333   0.1666667), wk =   0.0046296
        k(  159) = (   0.6666667   0.3333333   0.3333333), wk =   0.0046296
        k(  160) = (   0.6666667   0.3333333   0.5000000), wk =   0.0046296
        k(  161) = (   0.6666667   0.3333333   0.6666667), wk =   0.0046296
        k(  162) = (   0.6666667   0.3333333   0.8333333), wk =   0.0046296
        k(  163) = (   0.6666667   0.5000000   0.0000000), wk =   0.0046296
        k(  164) = (   0.6666667   0.5000000   0.1666667), wk =   0.0046296
        k(  165) = (   0.6666667   0.5000000   0.3333333), wk =   0.0046296
        k(  166) = (   0.6666667   0.5000000   0.5000000), wk =   0.0046296
        k(  167) = (   0.6666667   0.5000000   0.6666667), wk =   0.0046296
        k(  168) = (   0.6666667   0.5000000   0.8333333), wk =   0.0046296
        k(  169) = (   0.6666667   0.6666667   0.0000000), wk =   0.0046296
        k(  170) = (   0.6666667   0.6666667   0.1666667), wk =   0.0046296
        k(  171) = (   0.6666667   0.6666667   0.3333333), wk =   0.0046296
        k(  172) = (   0.6666667   0.6666667   0.5000000), wk =   0.0046296
        k(  173) = (   0.6666667   0.6666667   0.6666667), wk =   0.0046296
        k(  174) = (   0.6666667   0.6666667   0.8333333), wk =   0.0046296
        k(  175) = (   0.6666667   0.8333333   0.0000000), wk =   0.0046296
        k(  176) = (   0.6666667   0.8333333   0.1666667), wk =   0.0046296
        k(  177) = (   0.6666667   0.8333333   0.3333333), wk =   0.0046296
        k(  178) = (   0.6666667   0.8333333   0.5000000), wk =   0.0046296
        k(  179) = (   0.6666667   0.8333333   0.6666667), wk =   0.0046296
        k(  180) = (   0.6666667   0.8333333   0.8333333), wk =   0.0046296
        k(  181) = (   0.8333333   0.0000000   0.0000000), wk =   0.0046296
        k(  182) = (   0.8333333   0.0000000   0.1666667), wk =   0.0046296
        k(  183) = (   0.8333333   0.0000000   0.3333333), wk =   0.0046296
        k(  184) = (   0.8333333   0.0000000   0.5000000), wk =   0.0046296
        k(  185) = (   0.8333333  -0.0000000   0.6666667), wk =   0.0046296
        k(  186) = (   0.8333333   0.0000000   0.8333333), wk =   0.0046296
        k(  187) = (   0.8333333   0.1666667   0.0000000), wk =   0.0046296
        k(  188) = (   0.8333333   0.1666667   0.1666667), wk =   0.0046296
        k(  189) = (   0.8333333   0.1666667   0.3333333), wk =   0.0046296
        k(  190) = (   0.8333333   0.1666667   0.5000000), wk =   0.0046296
        k(  191) = (   0.8333333   0.1666667   0.6666667), wk =   0.0046296
        k(  192) = (   0.8333333   0.1666667   0.8333333), wk =   0.0046296
        k(  193) = (   0.8333333   0.3333333   0.0000000), wk =   0.0046296
        k(  194) = (   0.8333333   0.3333333   0.1666667), wk =   0.0046296
        k(  195) = (   0.8333333   0.3333333   0.3333333), wk =   0.0046296
        k(  196) = (   0.8333333   0.3333333   0.5000000), wk =   0.0046296
        k(  197) = (   0.8333333   0.3333333   0.6666667), wk =   0.0046296
        k(  198) = (   0.8333333   0.3333333   0.8333333), wk =   0.0046296
        k(  199) = (   0.8333333   0.5000000   0.0000000), wk =   0.0046296
        k(  200) = (   0.8333333   0.5000000   0.1666667), wk =   0.0046296
        k(  201) = (   0.8333333   0.5000000   0.3333333), wk =   0.0046296
        k(  202) = (   0.8333333   0.5000000   0.5000000), wk =   0.0046296
        k(  203) = (   0.8333333   0.5000000   0.6666667), wk =   0.0046296
        k(  204) = (   0.8333333   0.5000000   0.8333333), wk =   0.0046296
        k(  205) = (   0.8333333   0.6666667   0.0000000), wk =   0.0046296
        k(  206) = (   0.8333333   0.6666667   0.1666667), wk =   0.0046296
        k(  207) = (   0.8333333   0.6666667   0.3333333), wk =   0.0046296
        k(  208) = (   0.8333333   0.6666667   0.5000000), wk =   0.0046296
        k(  209) = (   0.8333333   0.6666667   0.6666667), wk =   0.0046296
        k(  210) = (   0.8333333   0.6666667   0.8333333), wk =   0.0046296
        k(  211) = (   0.8333333   0.8333333   0.0000000), wk =   0.0046296
        k(  212) = (   0.8333333   0.8333333   0.1666667), wk =   0.0046296
        k(  213) = (   0.8333333   0.8333333   0.3333333), wk =   0.0046296
        k(  214) = (   0.8333333   0.8333333   0.5000000), wk =   0.0046296
        k(  215) = (   0.8333333   0.8333333   0.6666667), wk =   0.0046296
        k(  216) = (   0.8333333   0.8333333   0.8333333), wk =   0.0046296

     Dense  grid:   187971 G-vectors     FFT dimensions: ( 256, 256, 256)

     Dynamical RAM for                 wfc:       2.24 MB

     Dynamical RAM for     wfc (w. buffer):       2.24 MB

     Dynamical RAM for             U proj.:       0.11 MB

     Dynamical RAM for  U proj. (w. buff.):       0.11 MB

     Dynamical RAM for           str. fact:       0.36 MB

     Dynamical RAM for           local pot:       0.00 MB

     Dynamical RAM for          nlocal pot:       2.82 MB

     Dynamical RAM for                qrad:       4.98 MB

     Dynamical RAM for          rho,v,vnew:      24.54 MB

     Dynamical RAM for           G-vectors:       0.38 MB

     Dynamical RAM for          h,s,v(r/c):       1.83 MB

     Dynamical RAM for          <psi|beta>:       0.77 MB

     Dynamical RAM for                 psi:       4.48 MB

     Dynamical RAM for                hpsi:       4.48 MB

     Dynamical RAM for                spsi:       4.48 MB

     Dynamical RAM for      wfcinit/wfcrot:       5.40 MB

     Dynamical RAM for           addusdens:      17.48 MB

     Estimated static dynamical RAM per process >      59.88 MB

     Estimated max dynamical RAM per process >      77.35 MB

     Estimated total dynamical RAM >       2.42 GB

     Check: negative core charge=   -0.000015
     Generating pointlists ...
     new r_m :   0.0448 (alat units)  2.3181 (a.u.) for type    1
     new r_m :   0.0448 (alat units)  2.3181 (a.u.) for type    2
     new r_m :   0.0456 (alat units)  2.3625 (a.u.) for type    3
     new r_m :   0.0448 (alat units)  2.3181 (a.u.) for type    4

     The potential is recalculated from file :
     ./tmp/MnBi2Te4.save/charge-density


     HUBBARD ENERGY =    0.0823  (Ry)

     STARTING HUBBARD OCCUPATIONS:

     =================== HUBBARD OCCUPATIONS ===================
     ------------------------ ATOM    1 ------------------------
     Tr[ns(  1)] (up, down, total) =   4.97666  0.28433  5.26099
     Atomic magnetic moment for atom   1 =   4.69233
     SPIN  1
     eigenvalues:
       0.991  0.991  0.998  0.998  0.998
     eigenvectors (columns):
      -0.000 -0.000 -0.000 -0.000  1.000
      -0.156  0.735  0.660  0.001  0.000
      -0.735 -0.156  0.001 -0.660 -0.000
       0.645  0.137  0.001 -0.752 -0.000
       0.137 -0.645  0.752  0.001  0.000
     occupation matrix ns (before diag.):
       0.998  0.000 -0.000 -0.000  0.000
       0.000  0.994 -0.000  0.000  0.004
      -0.000 -0.000  0.994  0.004  0.000
      -0.000  0.000  0.004  0.995 -0.000
       0.000  0.004  0.000 -0.000  0.995
     SPIN  2
     eigenvalues:
       0.017  0.018  0.018  0.116  0.116
     eigenvectors (columns):
       1.000 -0.000 -0.000 -0.000 -0.000
       0.000 -0.155  0.568 -0.080 -0.805
      -0.000 -0.568 -0.155 -0.805  0.080
      -0.000 -0.780 -0.212  0.586 -0.058
       0.000 -0.212  0.780  0.058  0.586
     occupation matrix ns (before diag.):
       0.017  0.000  0.000 -0.000 -0.000
       0.000  0.082 -0.000  0.000 -0.046
       0.000 -0.000  0.082 -0.046 -0.000
      -0.000  0.000 -0.046  0.052  0.000
      -0.000 -0.046 -0.000  0.000  0.052
     ------------------------ ATOM    2 ------------------------
     Tr[ns(  2)] (up, down, total) =   0.28433  4.97666  5.26098
     Atomic magnetic moment for atom   2 =  -4.69233
     SPIN  1
     eigenvalues:
       0.017  0.018  0.018  0.116  0.116
     eigenvectors (columns):
       1.000  0.000  0.000  0.000 -0.000
      -0.000 -0.041 -0.587 -0.543 -0.599
      -0.000  0.587 -0.041 -0.599  0.543
      -0.000  0.807 -0.056  0.436 -0.395
       0.000 -0.056 -0.807  0.395  0.436
     occupation matrix ns (before diag.):
       0.017  0.000 -0.000  0.000 -0.000
       0.000  0.082 -0.000  0.000 -0.046
      -0.000 -0.000  0.082 -0.046  0.000
       0.000  0.000 -0.046  0.052 -0.000
      -0.000 -0.046  0.000 -0.000  0.052
     SPIN  2
     eigenvalues:
       0.991  0.991  0.998  0.998  0.998
     eigenvectors (columns):
      -0.000 -0.000  0.000  0.000  1.000
       0.360 -0.660  0.657  0.054 -0.000
      -0.660 -0.360 -0.054  0.657 -0.000
       0.579  0.316 -0.061  0.749 -0.000
      -0.316  0.579  0.749  0.061 -0.000
     occupation matrix ns (before diag.):
       0.998  0.000 -0.000  0.000 -0.000
       0.000  0.994  0.000 -0.000  0.004
      -0.000  0.000  0.994  0.004 -0.000
       0.000 -0.000  0.004  0.995  0.000
      -0.000  0.004 -0.000  0.000  0.995

     Number of occupied Hubbard levels =   10.5220

     Atomic wfc used for Hubbard projectors are orthogonalized

     Starting wfcs are   88 randomized atomic wfcs +  112 random wfcs
     Checking if some PAW data can be deallocated... 
       PAW data deallocated on   29 nodes for type:  1
       PAW data deallocated on   29 nodes for type:  2
       PAW data deallocated on   22 nodes for type:  3
       PAW data deallocated on   16 nodes for type:  4

     Band Structure Calculation
     Davidson diagonalization with overlap

     Computing kpt #:     1  of   432
     total cpu time spent up to now is      529.3 secs

     Computing kpt #:     2  of   432
     total cpu time spent up to now is      984.2 secs

     Computing kpt #:     3  of   432
     total cpu time spent up to now is     1452.8 secs

     Computing kpt #:     4  of   432
     total cpu time spent up to now is     1872.5 secs

     Computing kpt #:     5  of   432
     total cpu time spent up to now is     2305.1 secs

     Computing kpt #:     6  of   432
     total cpu time spent up to now is     2756.2 secs

     Computing kpt #:     7  of   432
     total cpu time spent up to now is     3209.6 secs

     Computing kpt #:     8  of   432
     c_bands:  1 eigenvalues not converged
     total cpu time spent up to now is     3785.5 secs

     Computing kpt #:     9  of   432
     total cpu time spent up to now is     4589.9 secs

     Computing kpt #:    10  of   432
     total cpu time spent up to now is     5564.3 secs

     Computing kpt #:    11  of   432
     total cpu time spent up to now is     6465.2 secs

     Computing kpt #:    12  of   432
     total cpu time spent up to now is     7372.1 secs

     Computing kpt #:    13  of   432
     total cpu time spent up to now is     8484.3 secs

     Computing kpt #:    14  of   432
     total cpu time spent up to now is     9402.8 secs

     Computing kpt #:    15  of   432
     total cpu time spent up to now is    10242.5 secs

     Computing kpt #:    16  of   432
     total cpu time spent up to now is    11246.1 secs

     Computing kpt #:    17  of   432
     total cpu time spent up to now is    12188.1 secs

     Computing kpt #:    18  of   432
     total cpu time spent up to now is    13102.2 secs

     Computing kpt #:    19  of   432
     total cpu time spent up to now is    14006.5 secs

     Computing kpt #:    20  of   432
     total cpu time spent up to now is    14967.4 secs

     Computing kpt #:    21  of   432
     total cpu time spent up to now is    15956.0 secs

     Computing kpt #:    22  of   432
     total cpu time spent up to now is    16861.8 secs

     Computing kpt #:    23  of   432
     total cpu time spent up to now is    17741.9 secs

     Computing kpt #:    24  of   432
     total cpu time spent up to now is    18554.8 secs

     Computing kpt #:    25  of   432
     total cpu time spent up to now is    19628.4 secs

     Computing kpt #:    26  of   432
     total cpu time spent up to now is    20425.0 secs

     Computing kpt #:    27  of   432
     total cpu time spent up to now is    21261.1 secs

     Computing kpt #:    28  of   432
     total cpu time spent up to now is    22057.0 secs

     Computing kpt #:    29  of   432
     total cpu time spent up to now is    22781.8 secs

     Computing kpt #:    30  of   432
     total cpu time spent up to now is    23577.3 secs

     Computing kpt #:    31  of   432
     total cpu time spent up to now is    24358.8 secs

     Computing kpt #:    32  of   432
     c_bands:  1 eigenvalues not converged
     total cpu time spent up to now is    25251.6 secs

     Computing kpt #:    33  of   432
     total cpu time spent up to now is    26046.2 secs

     Computing kpt #:    34  of   432
     total cpu time spent up to now is    26809.8 secs

     Computing kpt #:    35  of   432
     total cpu time spent up to now is    27605.2 secs

     Computing kpt #:    36  of   432
     c_bands:  1 eigenvalues not converged
     total cpu time spent up to now is    28644.6 secs

     Computing kpt #:    37  of   432
     total cpu time spent up to now is    29580.3 secs

     Computing kpt #:    38  of   432
     total cpu time spent up to now is    30483.6 secs

     Computing kpt #:    39  of   432
     total cpu time spent up to now is    31349.2 secs

     Computing kpt #:    40  of   432
     total cpu time spent up to now is    32334.0 secs

     Computing kpt #:    41  of   432
     total cpu time spent up to now is    33211.5 secs

     Computing kpt #:    42  of   432
     total cpu time spent up to now is    34131.0 secs

     Computing kpt #:    43  of   432
     total cpu time spent up to now is    35467.0 secs

     Computing kpt #:    44  of   432
     total cpu time spent up to now is    36569.0 secs

     Computing kpt #:    45  of   432
     total cpu time spent up to now is    37361.9 secs

     Computing kpt #:    46  of   432
     c_bands:  1 eigenvalues not converged
     total cpu time spent up to now is    38293.9 secs

     Computing kpt #:    47  of   432
     total cpu time spent up to now is    39204.8 secs

     Computing kpt #:    48  of   432
     total cpu time spent up to now is    40065.6 secs

     Computing kpt #:    49  of   432
     total cpu time spent up to now is    40979.0 secs

     Computing kpt #:    50  of   432
     total cpu time spent up to now is    41872.8 secs

     Computing kpt #:    51  of   432
     c_bands:  1 eigenvalues not converged
     total cpu time spent up to now is    43078.7 secs

     Computing kpt #:    52  of   432
     total cpu time spent up to now is    44102.8 secs

     Computing kpt #:    53  of   432
     total cpu time spent up to now is    45233.6 secs

     Computing kpt #:    54  of   432
     total cpu time spent up to now is    46356.6 secs

     Computing kpt #:    55  of   432
     total cpu time spent up to now is    47314.7 secs

     Computing kpt #:    56  of   432
     total cpu time spent up to now is    48357.0 secs

     Computing kpt #:    57  of   432
     total cpu time spent up to now is    49234.9 secs

     Computing kpt #:    58  of   432
     total cpu time spent up to now is    50308.1 secs

     Computing kpt #:    59  of   432
     total cpu time spent up to now is    51288.0 secs

     Computing kpt #:    60  of   432
     total cpu time spent up to now is    52132.1 secs

     Computing kpt #:    61  of   432
     total cpu time spent up to now is    52968.5 secs

     Computing kpt #:    62  of   432
     total cpu time spent up to now is    53847.6 secs

     Computing kpt #:    63  of   432
     total cpu time spent up to now is    54858.4 secs

     Computing kpt #:    64  of   432
     total cpu time spent up to now is    55722.2 secs

     Computing kpt #:    65  of   432
     total cpu time spent up to now is    56485.3 secs

     Computing kpt #:    66  of   432
     total cpu time spent up to now is    57312.9 secs

     Computing kpt #:    67  of   432
     total cpu time spent up to now is    58224.7 secs

     Computing kpt #:    68  of   432
     total cpu time spent up to now is    59075.8 secs

     Computing kpt #:    69  of   432
     total cpu time spent up to now is    59976.2 secs

     Computing kpt #:    70  of   432
     total cpu time spent up to now is    60885.6 secs

     Computing kpt #:    71  of   432
     total cpu time spent up to now is    61879.9 secs

     Computing kpt #:    72  of   432
     total cpu time spent up to now is    62701.9 secs

     Computing kpt #:    73  of   432
     total cpu time spent up to now is    63577.2 secs

     Computing kpt #:    74  of   432
     total cpu time spent up to now is    64448.1 secs

     Computing kpt #:    75  of   432
     total cpu time spent up to now is    65284.7 secs

     Computing kpt #:    76  of   432
     total cpu time spent up to now is    66189.3 secs

     Computing kpt #:    77  of   432
     total cpu time spent up to now is    67133.1 secs

     Computing kpt #:    78  of   432
     total cpu time spent up to now is    68005.1 secs

     Computing kpt #:    79  of   432
     total cpu time spent up to now is    68868.4 secs

     Computing kpt #:    80  of   432
     total cpu time spent up to now is    69680.2 secs

     Computing kpt #:    81  of   432
     total cpu time spent up to now is    70654.0 secs

     Computing kpt #:    82  of   432
     total cpu time spent up to now is    71513.2 secs

     Computing kpt #:    83  of   432
     total cpu time spent up to now is    72391.1 secs

     Computing kpt #:    84  of   432
     total cpu time spent up to now is    73568.1 secs

     Computing kpt #:    85  of   432
     total cpu time spent up to now is    74523.9 secs

     Computing kpt #:    86  of   432
     total cpu time spent up to now is    75542.1 secs

     Computing kpt #:    87  of   432
     total cpu time spent up to now is    76434.9 secs

     Computing kpt #:    88  of   432
     total cpu time spent up to now is    77252.5 secs

     Computing kpt #:    89  of   432
     total cpu time spent up to now is    78236.7 secs

     Computing kpt #:    90  of   432
     total cpu time spent up to now is    79038.5 secs

     Computing kpt #:    91  of   432
     total cpu time spent up to now is    79978.7 secs

     Computing kpt #:    92  of   432
     total cpu time spent up to now is    80855.6 secs

     Computing kpt #:    93  of   432
     total cpu time spent up to now is    81816.0 secs

     Computing kpt #:    94  of   432
     total cpu time spent up to now is    82723.0 secs

     Computing kpt #:    95  of   432
     total cpu time spent up to now is    83634.4 secs

     Computing kpt #:    96  of   432
     total cpu time spent up to now is    84598.2 secs

     Computing kpt #:    97  of   432
     total cpu time spent up to now is    85493.1 secs

     Computing kpt #:    98  of   432
     total cpu time spent up to now is    86443.4 secs

     Computing kpt #:    99  of   432
     c_bands:  1 eigenvalues not converged
     total cpu time spent up to now is    87467.5 secs

     Computing kpt #:   100  of   432
     total cpu time spent up to now is    88349.6 secs

     Computing kpt #:   101  of   432
     c_bands:  1 eigenvalues not converged
     total cpu time spent up to now is    89314.2 secs

     Computing kpt #:   102  of   432
     total cpu time spent up to now is    90290.8 secs

     Computing kpt #:   103  of   432
     total cpu time spent up to now is    91244.2 secs

     Computing kpt #:   104  of   432
     total cpu time spent up to now is    92118.1 secs

     Computing kpt #:   105  of   432
     total cpu time spent up to now is    93020.1 secs

     Computing kpt #:   106  of   432
     total cpu time spent up to now is    93956.0 secs

     Computing kpt #:   107  of   432
     total cpu time spent up to now is    94838.4 secs

     Computing kpt #:   108  of   432
     total cpu time spent up to now is    95734.0 secs

     Computing kpt #:   109  of   432
     total cpu time spent up to now is    96578.4 secs

     Computing kpt #:   110  of   432
     total cpu time spent up to now is    97434.3 secs

     Computing kpt #:   111  of   432
     total cpu time spent up to now is    98288.6 secs

     Computing kpt #:   112  of   432
     total cpu time spent up to now is    99152.8 secs

     Computing kpt #:   113  of   432
     total cpu time spent up to now is   100026.1 secs

     Computing kpt #:   114  of   432
     total cpu time spent up to now is   100909.2 secs

     Computing kpt #:   115  of   432
     total cpu time spent up to now is   101770.0 secs

     Computing kpt #:   116  of   432
     total cpu time spent up to now is   102536.7 secs

     Computing kpt #:   117  of   432
     total cpu time spent up to now is   103280.6 secs

     Computing kpt #:   118  of   432
     total cpu time spent up to now is   104091.5 secs

     Computing kpt #:   119  of   432
     total cpu time spent up to now is   104910.4 secs

     Computing kpt #:   120  of   432
     total cpu time spent up to now is   105694.1 secs

     Computing kpt #:   121  of   432
     total cpu time spent up to now is   106609.3 secs

     Computing kpt #:   122  of   432
     total cpu time spent up to now is   107485.7 secs

     Computing kpt #:   123  of   432
     total cpu time spent up to now is   108516.0 secs

     Computing kpt #:   124  of   432
     total cpu time spent up to now is   109447.3 secs

     Computing kpt #:   125  of   432
     total cpu time spent up to now is   110316.5 secs

     Computing kpt #:   126  of   432
     total cpu time spent up to now is   111219.3 secs

     Computing kpt #:   127  of   432
     total cpu time spent up to now is   112198.4 secs

     Computing kpt #:   128  of   432
     total cpu time spent up to now is   113131.9 secs

     Computing kpt #:   129  of   432
     total cpu time spent up to now is   114055.6 secs

     Computing kpt #:   130  of   432
     total cpu time spent up to now is   115089.5 secs

     Computing kpt #:   131  of   432
     total cpu time spent up to now is   116014.3 secs

     Computing kpt #:   132  of   432
     total cpu time spent up to now is   116939.7 secs

     Computing kpt #:   133  of   432
     total cpu time spent up to now is   117924.5 secs

     Computing kpt #:   134  of   432
     total cpu time spent up to now is   118951.6 secs

     Computing kpt #:   135  of   432
     total cpu time spent up to now is   120062.8 secs

     Computing kpt #:   136  of   432
     total cpu time spent up to now is   121051.2 secs

     Computing kpt #:   137  of   432
     total cpu time spent up to now is   121948.2 secs

     Computing kpt #:   138  of   432
     total cpu time spent up to now is   122847.8 secs

     Computing kpt #:   139  of   432
     total cpu time spent up to now is   123805.8 secs

     Computing kpt #:   140  of   432
     total cpu time spent up to now is   124785.8 secs

     Computing kpt #:   141  of   432
     total cpu time spent up to now is   125636.1 secs

     Computing kpt #:   142  of   432
     total cpu time spent up to now is   126460.4 secs

     Computing kpt #:   143  of   432
     total cpu time spent up to now is   127270.0 secs

     Computing kpt #:   144  of   432
     c_bands:  1 eigenvalues not converged
     total cpu time spent up to now is   128221.9 secs

     Computing kpt #:   145  of   432
     total cpu time spent up to now is   129035.5 secs

     Computing kpt #:   146  of   432
     total cpu time spent up to now is   129952.8 secs

     Computing kpt #:   147  of   432
     total cpu time spent up to now is   131023.9 secs

     Computing kpt #:   148  of   432
     total cpu time spent up to now is   132014.2 secs

     Computing kpt #:   149  of   432
     total cpu time spent up to now is   132919.1 secs

     Computing kpt #:   150  of   432
     total cpu time spent up to now is   133761.5 secs

     Computing kpt #:   151  of   432
     total cpu time spent up to now is   134626.1 secs

     Computing kpt #:   152  of   432
     total cpu time spent up to now is   135567.8 secs

     Computing kpt #:   153  of   432
     total cpu time spent up to now is   136540.1 secs

     Computing kpt #:   154  of   432
     total cpu time spent up to now is   137544.9 secs

     Computing kpt #:   155  of   432
     total cpu time spent up to now is   138339.9 secs

     Computing kpt #:   156  of   432
     total cpu time spent up to now is   139292.3 secs

     Computing kpt #:   157  of   432
     total cpu time spent up to now is   140243.0 secs

     Computing kpt #:   158  of   432
     total cpu time spent up to now is   141194.5 secs

     Computing kpt #:   159  of   432
     c_bands:  1 eigenvalues not converged
     total cpu time spent up to now is   142259.2 secs

     Computing kpt #:   160  of   432
     total cpu time spent up to now is   143092.4 secs

     Computing kpt #:   161  of   432
     c_bands:  1 eigenvalues not converged
     total cpu time spent up to now is   144156.1 secs

     Computing kpt #:   162  of   432
     total cpu time spent up to now is   145167.2 secs

     Computing kpt #:   163  of   432
     total cpu time spent up to now is   146026.6 secs

     Computing kpt #:   164  of   432
     total cpu time spent up to now is   147035.6 secs

     Computing kpt #:   165  of   432
     total cpu time spent up to now is   148125.7 secs

     Computing kpt #:   166  of   432
     total cpu time spent up to now is   149148.2 secs

     Computing kpt #:   167  of   432
     total cpu time spent up to now is   150207.1 secs

     Computing kpt #:   168  of   432
     total cpu time spent up to now is   151119.6 secs

     Computing kpt #:   169  of   432
     total cpu time spent up to now is   152146.1 secs

     Computing kpt #:   170  of   432
     total cpu time spent up to now is   153146.7 secs

     Computing kpt #:   171  of   432
     c_bands:  1 eigenvalues not converged
     total cpu time spent up to now is   154229.4 secs

     Computing kpt #:   172  of   432
     total cpu time spent up to now is   155091.2 secs

     Computing kpt #:   173  of   432
     total cpu time spent up to now is   156010.2 secs

     Computing kpt #:   174  of   432
     total cpu time spent up to now is   156959.7 secs

     Computing kpt #:   175  of   432
     total cpu time spent up to now is   157982.7 secs

     Computing kpt #:   176  of   432
     total cpu time spent up to now is   159034.2 secs

     Computing kpt #:   177  of   432
     total cpu time spent up to now is   159972.3 secs

     Computing kpt #:   178  of   432
     total cpu time spent up to now is   160835.0 secs

     Computing kpt #:   179  of   432
     total cpu time spent up to now is   161757.6 secs

     Computing kpt #:   180  of   432
     total cpu time spent up to now is   162741.8 secs

     Computing kpt #:   181  of   432
     total cpu time spent up to now is   163681.7 secs

     Computing kpt #:   182  of   432
     total cpu time spent up to now is   164555.0 secs

     Computing kpt #:   183  of   432
     total cpu time spent up to now is   165447.2 secs

     Computing kpt #:   184  of   432
     total cpu time spent up to now is   166361.7 secs

     Computing kpt #:   185  of   432
     total cpu time spent up to now is   167252.4 secs

     Computing kpt #:   186  of   432
     total cpu time spent up to now is   168144.1 secs

     Computing kpt #:   187  of   432
     total cpu time spent up to now is   169047.7 secs

     Computing kpt #:   188  of   432
     total cpu time spent up to now is   169956.7 secs

     Computing kpt #:   189  of   432
     total cpu time spent up to now is   170851.0 secs

     Computing kpt #:   190  of   432
     total cpu time spent up to now is   171728.2 secs

     Computing kpt #:   191  of   432
     total cpu time spent up to now is   172648.2 secs

     Computing kpt #:   192  of   432
     total cpu time spent up to now is   173527.1 secs

     Computing kpt #:   193  of   432
     total cpu time spent up to now is   174404.0 secs

     Computing kpt #:   194  of   432
     total cpu time spent up to now is   175451.9 secs

     Computing kpt #:   195  of   432
     total cpu time spent up to now is   176571.8 secs

     Computing kpt #:   196  of   432
     total cpu time spent up to now is   177542.6 secs

     Computing kpt #:   197  of   432
     total cpu time spent up to now is   178412.4 secs

     Computing kpt #:   198  of   432
     total cpu time spent up to now is   179337.4 secs

     Computing kpt #:   199  of   432
     total cpu time spent up to now is   180369.6 secs

     Computing kpt #:   200  of   432
     total cpu time spent up to now is   181381.6 secs

     Computing kpt #:   201  of   432
     total cpu time spent up to now is   182319.3 secs

     Computing kpt #:   202  of   432
     total cpu time spent up to now is   183333.9 secs

     Computing kpt #:   203  of   432
     total cpu time spent up to now is   184183.7 secs

     Computing kpt #:   204  of   432
     total cpu time spent up to now is   185200.3 secs

     Computing kpt #:   205  of   432
     total cpu time spent up to now is   186229.9 secs

     Computing kpt #:   206  of   432
     total cpu time spent up to now is   187167.2 secs

     Computing kpt #:   207  of   432
     total cpu time spent up to now is   188116.9 secs

     Computing kpt #:   208  of   432
     total cpu time spent up to now is   189019.3 secs

     Computing kpt #:   209  of   432
     total cpu time spent up to now is   190016.4 secs

     Computing kpt #:   210  of   432
     total cpu time spent up to now is   190849.8 secs

     Computing kpt #:   211  of   432
     c_bands:  1 eigenvalues not converged
     total cpu time spent up to now is   191942.6 secs

     Computing kpt #:   212  of   432
     total cpu time spent up to now is   192793.9 secs

     Computing kpt #:   213  of   432
     total cpu time spent up to now is   193680.8 secs

     Computing kpt #:   214  of   432
     total cpu time spent up to now is   194537.4 secs

     Computing kpt #:   215  of   432
     total cpu time spent up to now is   195475.6 secs

     Computing kpt #:   216  of   432
     total cpu time spent up to now is   196517.7 secs

     Computing kpt #:   217  of   432
     total cpu time spent up to now is   197413.2 secs

     Computing kpt #:   218  of   432
     total cpu time spent up to now is   198385.5 secs

     Computing kpt #:   219  of   432
     total cpu time spent up to now is   199323.9 secs

     Computing kpt #:   220  of   432
     total cpu time spent up to now is   200185.4 secs

     Computing kpt #:   221  of   432
     total cpu time spent up to now is   201090.5 secs

     Computing kpt #:   222  of   432
     total cpu time spent up to now is   201977.0 secs

     Computing kpt #:   223  of   432
     total cpu time spent up to now is   202917.4 secs

     Computing kpt #:   224  of   432
     c_bands:  1 eigenvalues not converged
     total cpu time spent up to now is   204108.4 secs

     Computing kpt #:   225  of   432
     total cpu time spent up to now is   204968.0 secs

     Computing kpt #:   226  of   432
     total cpu time spent up to now is   205904.8 secs

     Computing kpt #:   227  of   432
     total cpu time spent up to now is   206758.4 secs

     Computing kpt #:   228  of   432
     total cpu time spent up to now is   207653.8 secs

     Computing kpt #:   229  of   432
     total cpu time spent up to now is   208572.0 secs

     Computing kpt #:   230  of   432
     total cpu time spent up to now is   209515.4 secs

     Computing kpt #:   231  of   432
     total cpu time spent up to now is   210510.5 secs

     Computing kpt #:   232  of   432
     total cpu time spent up to now is   211561.6 secs

     Computing kpt #:   233  of   432
     total cpu time spent up to now is   212754.5 secs

     Computing kpt #:   234  of   432
     total cpu time spent up to now is   213659.8 secs

     Computing kpt #:   235  of   432
     total cpu time spent up to now is   214557.3 secs

     Computing kpt #:   236  of   432
     total cpu time spent up to now is   215531.8 secs

     Computing kpt #:   237  of   432
     total cpu time spent up to now is   216510.8 secs

     Computing kpt #:   238  of   432
     total cpu time spent up to now is   217543.6 secs

     Computing kpt #:   239  of   432
     total cpu time spent up to now is   218484.8 secs

     Computing kpt #:   240  of   432
     total cpu time spent up to now is   219343.8 secs

     Computing kpt #:   241  of   432
     total cpu time spent up to now is   220267.8 secs

     Computing kpt #:   242  of   432
     total cpu time spent up to now is   221202.0 secs

     Computing kpt #:   243  of   432
     total cpu time spent up to now is   222248.1 secs

     Computing kpt #:   244  of   432
     total cpu time spent up to now is   223160.0 secs

     Computing kpt #:   245  of   432
     total cpu time spent up to now is   224014.5 secs

     Computing kpt #:   246  of   432
     total cpu time spent up to now is   224917.7 secs

     Computing kpt #:   247  of   432
     total cpu time spent up to now is   225902.8 secs

     Computing kpt #:   248  of   432
     total cpu time spent up to now is   226828.1 secs

     Computing kpt #:   249  of   432
     total cpu time spent up to now is   227739.4 secs

     Computing kpt #:   250  of   432
     total cpu time spent up to now is   228774.0 secs

     Computing kpt #:   251  of   432
     total cpu time spent up to now is   229651.6 secs

     Computing kpt #:   252  of   432
     total cpu time spent up to now is   230575.1 secs

     Computing kpt #:   253  of   432
     total cpu time spent up to now is   231451.4 secs

     Computing kpt #:   254  of   432
     c_bands:  1 eigenvalues not converged
     total cpu time spent up to now is   232557.2 secs

     Computing kpt #:   255  of   432
     total cpu time spent up to now is   233588.7 secs

     Computing kpt #:   256  of   432
     total cpu time spent up to now is   234498.7 secs

     Computing kpt #:   257  of   432
     total cpu time spent up to now is   235383.0 secs

     Computing kpt #:   258  of   432
     total cpu time spent up to now is   236553.4 secs

     Computing kpt #:   259  of   432
     c_bands:  1 eigenvalues not converged
     total cpu time spent up to now is   237716.6 secs

     Computing kpt #:   260  of   432
     total cpu time spent up to now is   238712.4 secs

     Computing kpt #:   261  of   432
     total cpu time spent up to now is   239617.2 secs

     Computing kpt #:   262  of   432
     total cpu time spent up to now is   240558.3 secs

     Computing kpt #:   263  of   432
     total cpu time spent up to now is   241584.0 secs

     Computing kpt #:   264  of   432
     total cpu time spent up to now is   242439.6 secs

     Computing kpt #:   265  of   432
     total cpu time spent up to now is   243314.9 secs

     Computing kpt #:   266  of   432
     total cpu time spent up to now is   244123.7 secs

     Computing kpt #:   267  of   432
     total cpu time spent up to now is   245010.8 secs

     Computing kpt #:   268  of   432
     total cpu time spent up to now is   245933.9 secs

     Computing kpt #:   269  of   432
     total cpu time spent up to now is   246922.7 secs

     Computing kpt #:   270  of   432
     total cpu time spent up to now is   247862.5 secs

     Computing kpt #:   271  of   432
     total cpu time spent up to now is   248795.0 secs

     Computing kpt #:   272  of   432
     c_bands:  1 eigenvalues not converged
     total cpu time spent up to now is   249830.0 secs

     Computing kpt #:   273  of   432
     total cpu time spent up to now is   250722.3 secs

     Computing kpt #:   274  of   432
     total cpu time spent up to now is   251608.9 secs

     Computing kpt #:   275  of   432
     total cpu time spent up to now is   252547.6 secs

     Computing kpt #:   276  of   432
     total cpu time spent up to now is   253510.1 secs

     Computing kpt #:   277  of   432
     total cpu time spent up to now is   254406.9 secs

     Computing kpt #:   278  of   432
     total cpu time spent up to now is   255215.7 secs

     Computing kpt #:   279  of   432
     total cpu time spent up to now is   256081.1 secs

     Computing kpt #:   280  of   432
     total cpu time spent up to now is   256962.3 secs

     Computing kpt #:   281  of   432
     total cpu time spent up to now is   257701.1 secs

     Computing kpt #:   282  of   432
     total cpu time spent up to now is   258551.4 secs

     Computing kpt #:   283  of   432
     total cpu time spent up to now is   259425.0 secs

     Computing kpt #:   284  of   432
     total cpu time spent up to now is   260299.5 secs

     Computing kpt #:   285  of   432
     total cpu time spent up to now is   261194.4 secs

     Computing kpt #:   286  of   432
     total cpu time spent up to now is   262214.3 secs

     Computing kpt #:   287  of   432
     total cpu time spent up to now is   263167.3 secs

     Computing kpt #:   288  of   432
     total cpu time spent up to now is   264061.7 secs

     Computing kpt #:   289  of   432
     total cpu time spent up to now is   264983.7 secs

     Computing kpt #:   290  of   432
     total cpu time spent up to now is   265897.6 secs

     Computing kpt #:   291  of   432
     total cpu time spent up to now is   266780.1 secs

     Computing kpt #:   292  of   432
     total cpu time spent up to now is   267764.9 secs

     Computing kpt #:   293  of   432
     total cpu time spent up to now is   268639.1 secs

     Computing kpt #:   294  of   432
     total cpu time spent up to now is   269504.3 secs

     Computing kpt #:   295  of   432
     total cpu time spent up to now is   270416.8 secs

     Computing kpt #:   296  of   432
     total cpu time spent up to now is   271355.3 secs

     Computing kpt #:   297  of   432
     total cpu time spent up to now is   272311.1 secs

     Computing kpt #:   298  of   432
     total cpu time spent up to now is   273087.5 secs

     Computing kpt #:   299  of   432
     total cpu time spent up to now is   273939.7 secs

     Computing kpt #:   300  of   432
     total cpu time spent up to now is   274756.8 secs

     Computing kpt #:   301  of   432
     total cpu time spent up to now is   275679.6 secs

     Computing kpt #:   302  of   432
     total cpu time spent up to now is   276828.0 secs

     Computing kpt #:   303  of   432
     total cpu time spent up to now is   277941.2 secs

     Computing kpt #:   304  of   432
     total cpu time spent up to now is   279079.6 secs

     Computing kpt #:   305  of   432
     total cpu time spent up to now is   280207.8 secs

     Computing kpt #:   306  of   432
     total cpu time spent up to now is   281125.7 secs

     Computing kpt #:   307  of   432
     total cpu time spent up to now is   282103.6 secs

     Computing kpt #:   308  of   432
     total cpu time spent up to now is   283031.3 secs

     Computing kpt #:   309  of   432
     total cpu time spent up to now is   283976.7 secs

     Computing kpt #:   310  of   432
     total cpu time spent up to now is   284830.0 secs

     Computing kpt #:   311  of   432
     total cpu time spent up to now is   285646.1 secs

     Computing kpt #:   312  of   432
     total cpu time spent up to now is   286489.8 secs

     Computing kpt #:   313  of   432
     total cpu time spent up to now is   287362.5 secs

     Computing kpt #:   314  of   432
     total cpu time spent up to now is   288282.7 secs

     Computing kpt #:   315  of   432
     c_bands:  1 eigenvalues not converged
     total cpu time spent up to now is   289383.4 secs

     Computing kpt #:   316  of   432
     total cpu time spent up to now is   290396.4 secs

     Computing kpt #:   317  of   432
     total cpu time spent up to now is   291357.2 secs

     Computing kpt #:   318  of   432
     total cpu time spent up to now is   292168.8 secs

     Computing kpt #:   319  of   432
     total cpu time spent up to now is   293318.1 secs

     Computing kpt #:   320  of   432
     total cpu time spent up to now is   294466.7 secs

     Computing kpt #:   321  of   432
     total cpu time spent up to now is   295683.7 secs

     Computing kpt #:   322  of   432
     total cpu time spent up to now is   296823.7 secs

     Computing kpt #:   323  of   432
     total cpu time spent up to now is   297923.3 secs

     Computing kpt #:   324  of   432
[...]
     1.0000   1.0000   1.0000   1.0000   1.0000   1.0000   1.0000   1.0000
     1.0000   1.0000   1.0000   1.0000   1.0000   1.0000   1.0000   1.0000
     1.0000   1.0000   1.0000   1.0000   1.0000   0.0000   0.0000   0.0000
     0.0000   0.0000   0.0000   0.0000   0.0000   0.0000   0.0000   0.0000
     0.0000   0.0000   0.0000   0.0000   0.0000   0.0000   0.0000   0.0000
     0.0000   0.0000   0.0000   0.0000   0.0000   0.0000   0.0000   0.0000
     0.0000   0.0000   0.0000   0.0000   0.0000   0.0000   0.0000   0.0000
     0.0000   0.0000   0.0000   0.0000   0.0000   0.0000   0.0000   0.0000
     0.0000   0.0000   0.0000   0.0000   0.0000   0.0000   0.0000   0.0000
     0.0000   0.0000   0.0000   0.0000   0.0000   0.0000   0.0000   0.0000
     0.0000   0.0000   0.0000   0.0000   0.0000   0.0000   0.0000   0.0000
     0.0000   0.0000   0.0000   0.0000   0.0000   0.0000   0.0000   0.0000
     0.0000   0.0000   0.0000   0.0000   0.0000   0.0000   0.0000   0.0000
     0.0000   0.0000   0.0000   0.0000   0.0000   0.0000   0.0000   0.0000
     0.0000   0.0000   0.0000   0.0000   0.0000   0.0000   0.0000   0.0000
     0.0000   0.0000   0.0000   0.0000   0.0000   0.0000   0.0000   0.0000
     0.0000   0.0000   0.0000   0.0000   0.0000   0.0000   0.0000   0.0000
     0.0000   0.0000   0.0000   0.0000   0.0000   0.0000   0.0000   0.0000
     0.0000   0.0000   0.0000   0.0000   0.0000   0.0000   0.0000   0.0000

          k = 3.1612 1.8251 0.6695 ( 23487 PWs)   bands (ev):

   -74.8247 -69.9206 -43.5585 -43.5572 -43.5568 -38.7437 -38.7430 -38.7389
   -15.5460 -15.5455 -15.5411 -15.5399 -15.5285 -15.5280 -15.5238 -15.5237
   -15.5233 -15.5225 -15.5193 -15.5181 -15.5117 -15.5112 -15.5102 -15.5097
   -15.5076 -15.5064 -15.5058 -15.5046  -3.9204  -3.9144  -3.8933  -3.8825
    -3.2051  -3.1806  -3.0905  -3.0171  -2.4508  -2.4137  -2.2496  -2.2217
     1.8123   1.9651   2.0216   2.2569   2.3302   2.6495   2.7779   3.0373
     3.2003   3.7594   3.8628   4.2293   4.4943   4.5345   4.5847   4.6862
     4.8301   4.9283   5.0615   5.1899   5.5096   5.8948   5.9085   6.0845
     6.3308   6.4168   6.6994   6.9469   7.1127   8.3964   8.6359   9.1870
     9.2790   9.2826   9.4747   9.5331   9.5472   9.7456   9.9827  10.2887
    10.4610  10.5364  10.5953  10.6185  11.2668  11.2776  11.4271  11.5497
    11.7247  12.0352  12.5030  13.1527  13.5150  13.8595  14.2805  14.3925
    14.7267  14.8294  15.4477  15.7548  16.0459  16.3519  16.6022  16.6465
    16.8608  16.8945  16.9216  17.0064  17.5574  17.6726  17.9030  17.9345
    17.9541  18.0426  18.0849  18.1110  18.1917  18.2268  18.2671  18.4577
    18.6649  18.7146  19.0564  19.1873  19.2741  19.4272  19.5206  19.5547
    19.6354  19.8562  19.9088  19.9692  20.1151  20.1660  20.2598  20.4491
    20.5080  20.5217  20.6189  20.6823  21.0810  21.2941  21.3181  21.5282
    21.5777  21.6909  21.9862  22.2710  22.3160  22.4367  22.5115  22.6385
    22.8463  22.9104  22.9199  23.1307  23.1699  23.3703  23.5066  23.5215
    23.6053  23.8550  23.9113  23.9324  24.2288  24.2513  24.4017  24.4201
    24.5039  24.5541  24.8064  24.8937  24.9820  25.1511  25.1841  25.4236
    25.4255  25.5418  25.7337  25.7496  25.9558  26.0405  26.0858  26.1862
    26.3583  26.3602  26.4783  26.5493  26.6078  26.6124  26.9347  26.9526
    27.0512  27.2969  27.5847  27.6088  27.6489  27.9553  28.1090  28.1602

     occupation numbers 
     1.0000   1.0000   1.0000   1.0000   1.0000   1.0000   1.0000   1.0000
     1.0000   1.0000   1.0000   1.0000   1.0000   1.0000   1.0000   1.0000
     1.0000   1.0000   1.0000   1.0000   1.0000   1.0000   1.0000   1.0000
     1.0000   1.0000   1.0000   1.0000   1.0000   1.0000   1.0000   1.0000
     1.0000   1.0000   1.0000   1.0000   1.0000   1.0000   1.0000   1.0000
     1.0000   1.0000   1.0000   1.0000   1.0000   1.0000   1.0000   1.0000
     1.0000   1.0000   1.0000   1.0000   1.0000   1.0000   1.0000   1.0000
     1.0000   1.0000   1.0000   1.0000   1.0000   1.0000   1.0000   1.0000
     1.0000   1.0000   1.0000   1.0000   1.0000   0.0000   0.0000   0.0000
     0.0000   0.0000   0.0000   0.0000   0.0000   0.0000   0.0000   0.0000
     0.0000   0.0000   0.0000   0.0000   0.0000   0.0000   0.0000   0.0000
     0.0000   0.0000   0.0000   0.0000   0.0000   0.0000   0.0000   0.0000
     0.0000   0.0000   0.0000   0.0000   0.0000   0.0000   0.0000   0.0000
     0.0000   0.0000   0.0000   0.0000   0.0000   0.0000   0.0000   0.0000
     0.0000   0.0000   0.0000   0.0000   0.0000   0.0000   0.0000   0.0000
     0.0000   0.0000   0.0000   0.0000   0.0000   0.0000   0.0000   0.0000
     0.0000   0.0000   0.0000   0.0000   0.0000   0.0000   0.0000   0.0000
     0.0000   0.0000   0.0000   0.0000   0.0000   0.0000   0.0000   0.0000
     0.0000   0.0000   0.0000   0.0000   0.0000   0.0000   0.0000   0.0000
     0.0000   0.0000   0.0000   0.0000   0.0000   0.0000   0.0000   0.0000
     0.0000   0.0000   0.0000   0.0000   0.0000   0.0000   0.0000   0.0000
     0.0000   0.0000   0.0000   0.0000   0.0000   0.0000   0.0000   0.0000
     0.0000   0.0000   0.0000   0.0000   0.0000   0.0000   0.0000   0.0000
     0.0000   0.0000   0.0000   0.0000   0.0000   0.0000   0.0000   0.0000
     0.0000   0.0000   0.0000   0.0000   0.0000   0.0000   0.0000   0.0000

          k = 2.1074 1.2167 0.7253 ( 23484 PWs)   bands (ev):

   -74.8247 -69.9206 -43.5585 -43.5571 -43.5568 -38.7434 -38.7429 -38.7389
   -15.5429 -15.5424 -15.5381 -15.5369 -15.5291 -15.5286 -15.5243 -15.5231
   -15.5226 -15.5221 -15.5181 -15.5169 -15.5144 -15.5139 -15.5131 -15.5126
   -15.5102 -15.5090 -15.5086 -15.5074  -4.6374  -4.6281  -4.4740  -4.4604
    -3.2239  -3.1932  -2.9355  -2.8635  -2.0511  -1.9756  -1.7900  -1.7307
     1.9029   1.9727   2.0606   2.1486   2.1974   3.1170   3.1265   3.5376
     3.6827   3.8454   3.8944   4.4202   4.7954   4.8147   5.0700   5.0976
     5.1027   5.1423   5.2828   5.3618   5.9374   6.1566   6.1624   6.2198
     6.3581   6.5837   6.8708   7.0194   7.1886   8.6947   8.9891   9.1396
     9.3179   9.3188   9.4786   9.5596   9.7509   9.8998   9.9853  10.2858
    10.2995  10.5170  10.6022  10.7037  11.1023  11.3300  11.5353  11.6058
    12.0789  12.1336  12.4098  13.0539  13.5803  13.7885  13.9631  14.2036
    14.3230  14.3951  14.5580  14.9105  15.0935  15.3374  15.3881  15.5492
    15.5548  15.5772  15.6875  16.1443  16.2948  16.3024  16.4883  16.5799
    16.7906  17.0023  17.0278  17.3806  17.5593  17.7220  17.9518  18.1230
    18.2282  18.4632  18.5511  18.9521  18.9867  19.0072  19.1417  19.3698
    19.6125  19.8323  20.1741  20.3287  20.5056  20.5921  20.6515  20.8439
    20.9363  21.0013  21.2676  21.3263  21.3540  21.3969  21.4784  21.7797
    21.8277  21.8559  22.0558  22.0857  22.1524  22.2292  22.3569  22.4177
    22.6499  22.7155  22.8991  22.9135  22.9627  23.0708  23.2348  23.3506
    23.4628  23.5131  23.5996  23.6729  23.7450  23.9532  24.0189  24.1569
    24.1831  24.2923  24.6345  24.6442  24.8194  25.1820  25.7017  25.7133
    25.8257  25.9174  25.9848  26.2252  26.3023  26.3875  26.4952  26.7984
    26.8506  26.9540  26.9549  27.3063  27.4088  27.4774  27.6864  27.9996
    28.1894  28.2625  28.4076  28.4190  28.6362  28.8359  28.9371  28.9971

     occupation numbers 
     1.0000   1.0000   1.0000   1.0000   1.0000   1.0000   1.0000   1.0000
     1.0000   1.0000   1.0000   1.0000   1.0000   1.0000   1.0000   1.0000
     1.0000   1.0000   1.0000   1.0000   1.0000   1.0000   1.0000   1.0000
     1.0000   1.0000   1.0000   1.0000   1.0000   1.0000   1.0000   1.0000
     1.0000   1.0000   1.0000   1.0000   1.0000   1.0000   1.0000   1.0000
     1.0000   1.0000   1.0000   1.0000   1.0000   1.0000   1.0000   1.0000
     1.0000   1.0000   1.0000   1.0000   1.0000   1.0000   1.0000   1.0000
     1.0000   1.0000   1.0000   1.0000   1.0000   1.0000   1.0000   1.0000
     1.0000   1.0000   1.0000   1.0000   1.0000   0.0000   0.0000   0.0000
     0.0000   0.0000   0.0000   0.0000   0.0000   0.0000   0.0000   0.0000
     0.0000   0.0000   0.0000   0.0000   0.0000   0.0000   0.0000   0.0000
     0.0000   0.0000   0.0000   0.0000   0.0000   0.0000   0.0000   0.0000
     0.0000   0.0000   0.0000   0.0000   0.0000   0.0000   0.0000   0.0000
     0.0000   0.0000   0.0000   0.0000   0.0000   0.0000   0.0000   0.0000
     0.0000   0.0000   0.0000   0.0000   0.0000   0.0000   0.0000   0.0000
     0.0000   0.0000   0.0000   0.0000   0.0000   0.0000   0.0000   0.0000
     0.0000   0.0000   0.0000   0.0000   0.0000   0.0000   0.0000   0.0000
     0.0000   0.0000   0.0000   0.0000   0.0000   0.0000   0.0000   0.0000
     0.0000   0.0000   0.0000   0.0000   0.0000   0.0000   0.0000   0.0000
     0.0000   0.0000   0.0000   0.0000   0.0000   0.0000   0.0000   0.0000
     0.0000   0.0000   0.0000   0.0000   0.0000   0.0000   0.0000   0.0000
     0.0000   0.0000   0.0000   0.0000   0.0000   0.0000   0.0000   0.0000
     0.0000   0.0000   0.0000   0.0000   0.0000   0.0000   0.0000   0.0000
     0.0000   0.0000   0.0000   0.0000   0.0000   0.0000   0.0000   0.0000
     0.0000   0.0000   0.0000   0.0000   0.0000   0.0000   0.0000   0.0000

          k = 1.0537 0.6084 0.7810 ( 23461 PWs)   bands (ev):

   -74.8247 -69.9206 -43.5586 -43.5568 -43.5567 -38.7430 -38.7428 -38.7390
   -15.5371 -15.5366 -15.5324 -15.5321 -15.5316 -15.5312 -15.5273 -15.5261
   -15.5209 -15.5204 -15.5187 -15.5182 -15.5169 -15.5167 -15.5164 -15.5155
   -15.5142 -15.5130 -15.5124 -15.5112  -5.3203  -5.2984  -5.1310  -5.0977
    -3.6367  -3.5007  -3.1725  -2.9976  -1.6007  -1.4337  -1.0468  -0.9351
     1.9283   1.9329   1.9852   2.1440   2.1511   3.9490   3.9611   4.3368
     4.5265   4.8818   5.1144   5.2099   5.3493   5.4230   5.4758   5.6678
     5.7797   5.9550   6.0570   6.2800   6.3554   6.5721   6.7121   6.8654
     6.8705   6.9995   7.2413   7.3141   7.4074   8.6064   8.8137   9.0677
     9.3365   9.3380   9.3816   9.4793   9.5357   9.6556   9.8022   9.9811
    10.0271  10.2497  10.2901  10.4681  10.8712  11.0254  11.4346  11.9480
    12.1250  12.3881  12.5931  12.9277  12.9748  13.0870  13.2032  13.3280
    13.6936  13.7418  13.8300  14.0609  14.1009  14.2175  14.2510  14.4023
    14.6617  14.7509  14.9126  14.9150  15.3744  15.6179  15.7799  15.8549
    15.9386  16.1173  16.4711  16.4980  16.5776  16.7786  16.8706  17.1366
    17.2301  17.2640  17.2840  17.5346  17.6121  17.7717  17.7821  17.7905
    18.1763  18.2766  18.4903  18.6414  18.7476  19.2684  19.3294  19.4000
    19.4303  19.8937  20.0219  20.2226  20.3689  20.5209  20.6257  20.7080
    20.8173  21.2507  21.6367  21.8542  21.9235  22.1384  22.2033  22.6888
    22.7575  23.2547  23.2784  23.4010  23.4498  23.7242  23.9471  24.0917
    24.5105  24.9122  25.0465  25.1168  25.6008  25.6582  25.6815  25.7333
    25.7488  25.9002  25.9333  26.1279  26.1609  26.3047  26.3781  26.3937
    26.6989  26.8929  26.9733  27.0379  27.1620  27.2717  27.2914  27.5639
    27.6925  27.8611  27.9436  28.0984  28.1900  28.2016  28.4047  28.4644
    28.6200  28.8512  28.8764  29.2609  29.4410  29.4661  29.5041  29.5554

     occupation numbers 
     1.0000   1.0000   1.0000   1.0000   1.0000   1.0000   1.0000   1.0000
     1.0000   1.0000   1.0000   1.0000   1.0000   1.0000   1.0000   1.0000
     1.0000   1.0000   1.0000   1.0000   1.0000   1.0000   1.0000   1.0000
     1.0000   1.0000   1.0000   1.0000   1.0000   1.0000   1.0000   1.0000
     1.0000   1.0000   1.0000   1.0000   1.0000   1.0000   1.0000   1.0000
     1.0000   1.0000   1.0000   1.0000   1.0000   1.0000   1.0000   1.0000
     1.0000   1.0000   1.0000   1.0000   1.0000   1.0000   1.0000   1.0000
     1.0000   1.0000   1.0000   1.0000   1.0000   1.0000   1.0000   1.0000
     1.0000   1.0000   1.0000   1.0000   1.0000   0.0000   0.0000   0.0000
     0.0000   0.0000   0.0000   0.0000   0.0000   0.0000   0.0000   0.0000
     0.0000   0.0000   0.0000   0.0000   0.0000   0.0000   0.0000   0.0000
     0.0000   0.0000   0.0000   0.0000   0.0000   0.0000   0.0000   0.0000
     0.0000   0.0000   0.0000   0.0000   0.0000   0.0000   0.0000   0.0000
     0.0000   0.0000   0.0000   0.0000   0.0000   0.0000   0.0000   0.0000
     0.0000   0.0000   0.0000   0.0000   0.0000   0.0000   0.0000   0.0000
     0.0000   0.0000   0.0000   0.0000   0.0000   0.0000   0.0000   0.0000
     0.0000   0.0000   0.0000   0.0000   0.0000   0.0000   0.0000   0.0000
     0.0000   0.0000   0.0000   0.0000   0.0000   0.0000   0.0000   0.0000
     0.0000   0.0000   0.0000   0.0000   0.0000   0.0000   0.0000   0.0000
     0.0000   0.0000   0.0000   0.0000   0.0000   0.0000   0.0000   0.0000
     0.0000   0.0000   0.0000   0.0000   0.0000   0.0000   0.0000   0.0000
     0.0000   0.0000   0.0000   0.0000   0.0000   0.0000   0.0000   0.0000
     0.0000   0.0000   0.0000   0.0000   0.0000   0.0000   0.0000   0.0000
     0.0000   0.0000   0.0000   0.0000   0.0000   0.0000   0.0000   0.0000
     0.0000   0.0000   0.0000   0.0000   0.0000   0.0000   0.0000   0.0000

          k = 0.0000 0.0000 0.8368 ( 23473 PWs)   bands (ev):

   -74.8247 -69.9206 -43.5586 -43.5567 -43.5567 -38.7428 -38.7428 -38.7390
   -15.5346 -15.5346 -15.5341 -15.5341 -15.5299 -15.5299 -15.5287 -15.5287
   -15.5227 -15.5221 -15.5186 -15.5179 -15.5179 -15.5174 -15.5174 -15.5173
   -15.5133 -15.5133 -15.5121 -15.5121  -5.5635  -5.5367  -5.3696  -5.3286
    -3.8176  -3.6437  -3.3145  -3.0819  -1.5379  -1.2421  -0.8369  -0.6009
     1.8890   1.8890   1.9507   2.1586   2.1586   4.1520   4.3513   5.1521
     5.5193   5.9364   5.9364   5.9820   5.9820   6.1010   6.1010   6.1916
     6.1916   6.2740   6.4346   6.4346   6.5781   6.9429   6.9429   7.0300
     7.0300   7.2518   7.2518   7.5323   7.7666   8.3539   8.6037   8.8121
     8.8121   8.9250   8.9250   9.0274   9.1660   9.2583   9.2583   9.3648
     9.3648  10.1137  10.1138  10.1511  10.8494  10.8494  11.4039  11.6199
    11.7140  12.5706  12.7432  12.7432  13.2737  13.3057  13.3057  13.3465
    13.5939  13.7507  13.7507  13.8225  14.0093  14.0879  14.0879  14.3264
    14.3264  14.5886  14.7610  14.7610  15.0851  15.2107  15.4525  15.4526
    15.4837  15.6196  15.6197  15.8245  16.0644  16.2290  16.2290  16.2563
    16.2563  16.5956  16.7467  16.7468  16.9409  17.0162  17.0162  17.7514
    18.0004  18.0004  18.2258  18.3090  18.4717  18.4717  19.0696  19.1785
    19.1785  19.2437  19.2487  19.2487  19.6261  20.2556  20.6905  20.6906
    21.0117  21.0117  21.0146  21.2756  21.5246  21.5247  21.5588  21.9893
    21.9893  22.2005  22.8739  23.3166  23.3166  23.6919  23.6919  23.7444
    24.3811  24.3811  24.4931  25.2196  25.2196  25.4175  25.9374  26.1772
    26.3049  26.3049  26.7345  27.1032  27.1032  27.2479  27.7119  27.7119
    28.1457  28.1457  28.2276  28.4672  28.5105  28.6039  28.6569  28.6657
    29.2314  29.3888  29.3888  29.6269  29.6269  29.7814  29.7814  29.9121
    30.0293  30.0293  30.1719  30.1719  30.3751  30.4081  30.6248  30.6736

     occupation numbers 
     1.0000   1.0000   1.0000   1.0000   1.0000   1.0000   1.0000   1.0000
     1.0000   1.0000   1.0000   1.0000   1.0000   1.0000   1.0000   1.0000
     1.0000   1.0000   1.0000   1.0000   1.0000   1.0000   1.0000   1.0000
     1.0000   1.0000   1.0000   1.0000   1.0000   1.0000   1.0000   1.0000
     1.0000   1.0000   1.0000   1.0000   1.0000   1.0000   1.0000   1.0000
     1.0000   1.0000   1.0000   1.0000   1.0000   1.0000   1.0000   1.0000
     1.0000   1.0000   1.0000   1.0000   1.0000   1.0000   1.0000   1.0000
     1.0000   1.0000   1.0000   1.0000   1.0000   1.0000   1.0000   1.0000
     1.0000   1.0000   1.0000   1.0000   1.0000   0.0000   0.0000   0.0000
     0.0000   0.0000   0.0000   0.0000   0.0000   0.0000   0.0000   0.0000
     0.0000   0.0000   0.0000   0.0000   0.0000   0.0000   0.0000   0.0000
     0.0000   0.0000   0.0000   0.0000   0.0000   0.0000   0.0000   0.0000
     0.0000   0.0000   0.0000   0.0000   0.0000   0.0000   0.0000   0.0000
     0.0000   0.0000   0.0000   0.0000   0.0000   0.0000   0.0000   0.0000
     0.0000   0.0000   0.0000   0.0000   0.0000   0.0000   0.0000   0.0000
     0.0000   0.0000   0.0000   0.0000   0.0000   0.0000   0.0000   0.0000
     0.0000   0.0000   0.0000   0.0000   0.0000   0.0000   0.0000   0.0000
     0.0000   0.0000   0.0000   0.0000   0.0000   0.0000   0.0000   0.0000
     0.0000   0.0000   0.0000   0.0000   0.0000   0.0000   0.0000   0.0000
     0.0000   0.0000   0.0000   0.0000   0.0000   0.0000   0.0000   0.0000
     0.0000   0.0000   0.0000   0.0000   0.0000   0.0000   0.0000   0.0000
     0.0000   0.0000   0.0000   0.0000   0.0000   0.0000   0.0000   0.0000
     0.0000   0.0000   0.0000   0.0000   0.0000   0.0000   0.0000   0.0000
     0.0000   0.0000   0.0000   0.0000   0.0000   0.0000   0.0000   0.0000
     0.0000   0.0000   0.0000   0.0000   0.0000   0.0000   0.0000   0.0000

     the Fermi energy is     8.0416 ev
     (compare with:     8.0414 eV, computed in scf)

     Writing all to output data dir ./tmp/MnBi2Te4.save/
 
     init_run     :     53.16s CPU     55.02s WALL (       1 calls)
     electrons    : 343666.90s CPU 397886.89s WALL (       1 calls)

     Called by init_run:
     wfcinit      :     44.94s CPU     46.42s WALL (       1 calls)
     wfcinit:atom :      0.45s CPU      0.63s WALL (     432 calls)
     wfcinit:wfcr :  10550.64s CPU  12185.42s WALL (     432 calls)
     potinit      :      3.43s CPU      3.66s WALL (       1 calls)
     hinit0       :      4.22s CPU      4.29s WALL (       1 calls)

     Called by electrons:
     c_bands      : 343666.71s CPU 397886.46s WALL (       1 calls)
     v_of_rho     :      1.69s CPU      1.86s WALL (       1 calls)
     v_h          :      0.05s CPU      0.06s WALL (       1 calls)
     v_xc         :      1.63s CPU      1.80s WALL (       1 calls)
     newd         :      0.30s CPU      0.33s WALL (       1 calls)
     PAW_pot      :      0.61s CPU      0.65s WALL (       1 calls)

     Called by c_bands:
     init_us_2    :      2.16s CPU      2.24s WALL (     864 calls)
     init_us_2:cp :      2.15s CPU      2.24s WALL (     864 calls)
     cegterg      : 333074.69s CPU 385648.90s WALL (    1771 calls)

     Called by sum_band:

     Called by *egterg:
     cdiaghg      :   9238.93s CPU  12172.30s WALL (   30816 calls)
     cegterg:over :   5466.23s CPU   6341.66s WALL (   30384 calls)
     cegterg:upda :   2908.01s CPU   3365.81s WALL (   30384 calls)
     cegterg:last :   6329.52s CPU   7342.69s WALL (   13537 calls)
     cdiaghg:chol :    652.97s CPU    746.96s WALL (   30816 calls)
     cdiaghg:inve :     78.66s CPU     96.27s WALL (   30816 calls)
     cdiaghg:para :   1600.42s CPU   2036.89s WALL (   61632 calls)
     h_psi        : 317204.51s CPU 365704.45s WALL (   32587 calls)
     s_psi        :    675.32s CPU    840.10s WALL (   33019 calls)
     g_psi        :     16.82s CPU     19.58s WALL (   30384 calls)

     Called by h_psi:
     h_psi:calbec :   2908.95s CPU   3350.94s WALL (   32587 calls)
     vloc_psi     : 311467.59s CPU 359117.16s WALL (   32587 calls)
     add_vuspsi   :    634.18s CPU    773.52s WALL (   32587 calls)
     vhpsi        :   2170.93s CPU   2436.17s WALL (   32587 calls)

     General routines
     calbec       :   5016.44s CPU   5721.41s WALL (   65606 calls)
     fft          :      1.39s CPU      1.46s WALL (      21 calls)
     fftw         : 282584.42s CPU 326080.94s WALL ( 5335630 calls)
     davcio       :      0.28s CPU      5.77s WALL (    1728 calls)
 
     Parallel routines

     Hubbard U routines
     vhpsi        :   2170.93s CPU   2436.17s WALL (   32587 calls)

     PAW routines
     PAW_pot      :      0.61s CPU      0.65s WALL (       1 calls)
 
     PWSCF        :   4d 3h48m CPU   4d19h 4m WALL

 
   This run was terminated on:  20:42:10  10Sep2025            

=------------------------------------------------------------------------------=
   JOB DONE.
=------------------------------------------------------------------------------=
