
     Program PWSCF v.7.2 starts on 10Sep2025 at 20:42:11 

     This program is part of the open-source Quantum ESPRESSO suite
     for quantum simulation of materials; please cite
         "P. Giannozzi et al., J. Phys.:Condens. Matter 21 395502 (2009);
         "P. Giannozzi et al., J. Phys.:Condens. Matter 29 465901 (2017);
         "P. Giannozzi et al., J. Chem. Phys. 152 154105 (2020);
          URL http://www.quantum-espresso.org", 
     in publications or presentations arising from this work. More details at
     http://www.quantum-espresso.org/quote

     Parallel version (MPI), running on    32 processors

     MPI processes distributed on     1 nodes
     186892 MiB available memory on the printing compute node when the environment starts
 
     Reading input from MnBi2Te4.bands.in

     Current dimensions of program PWSCF are:
     Max number of different atomic species (ntypx) = 10
     Max number of k-points (npk) =  40000
     Max angular momentum in pseudopotentials (lmaxx) =  4

     Atomic positions and unit cell read from directory:
     ./tmp/MnBi2Te4.save/
     Atomic positions from file used, from input discarded
 
     file Mn.pbe-spn-kjpaw_psl.0.3.1.UPF: wavefunction(s)  3P 3D renormalized
     file Mn.pbe-spn-kjpaw_psl.0.3.1.UPF: wavefunction(s)  3P 3D renormalized
     file Bi.pbe-dn-kjpaw_psl.1.0.0.UPF: wavefunction(s)  6P 5D renormalized
     file Te.pbe-n-kjpaw_psl.1.0.0.UPF: wavefunction(s)  5S 5P renormalized
 
     R & G space division:  proc/nbgrp/npool/nimage =      32
     Subspace diagonalization in iterative solution of the eigenvalue problem:
     one sub-group per band group will be used
     scalapack distributed-memory algorithm (size of sub-group:  2*  2 procs)

 
     Parallelization info
     --------------------
     sticks:   dense  smooth     PW     G-vecs:    dense   smooth      PW
     Min         252     252     70                 5873     5873     871
     Max         253     253     71                 5875     5875     873
     Sum        8079    8079   2257               187971   187971   27897
 
     Using Slab Decomposition
 


     bravais-lattice index     =            0
     lattice parameter (alat)  =      51.7756  a.u.
     unit-cell volume          =    2994.5794 (a.u.)^3
     number of atoms/cell      =           14
     number of atomic types    =            4
     number of electrons       =       138.00
     number of Kohn-Sham states=          200
     kinetic-energy cutoff     =      60.0000  Ry
     charge density cutoff     =     240.0000  Ry
     Exchange-correlation= SLA  PW   PBX  PBC
                           (   1   4   3   4   0   0   0)
     Hubbard projectors: ortho-atomic
     Hubbard parameters of DFT+U (Dudarev formulation) in eV:
     U(Mn1-3d) =  4.0000
     U(Mn2-3d) =  4.0000

     Internal variables: lda_plus_u = T, lda_plus_u_kind = 0

     celldm(1)=  51.775642  celldm(2)=   0.000000  celldm(3)=   0.000000
     celldm(4)=   0.000000  celldm(5)=   0.000000  celldm(6)=   0.000000

     crystal axes: (cart. coord. in units of alat)
               a(1) = (   0.079085  -0.045660   0.995822 )  
               a(2) = (   0.000000   0.091319   0.995822 )  
               a(3) = (  -0.079085  -0.045660   0.995822 )  

     reciprocal axes: (cart. coord. in units 2 pi/alat)
               b(1) = (  6.322314 -3.650196  0.334731 )  
               b(2) = (  0.000000  7.300392  0.334734 )  
               b(3) = ( -6.322314 -3.650196  0.334731 )  


     PseudoPot. # 1 for Mn read from file:
     ./Mn.pbe-spn-kjpaw_psl.0.3.1.UPF
     MD5 check sum: 872d0d815bb0ce6e24cff79ea4d0ae31
     Pseudo is Projector augmented-wave + core cor, Zval = 15.0
     Generated using &quot;atomic&quot; code by A. Dal Corso  v.6.2.2
     Shape of augmentation charge: PSQ
     Using radial grid of 1187 points,  6 beta functions with: 
                l(1) =   0
                l(2) =   0
                l(3) =   1
                l(4) =   1
                l(5) =   2
                l(6) =   2
     Q(r) pseudized with 0 coefficients 


     PseudoPot. # 2 for Mn read from file:
     ./Mn.pbe-spn-kjpaw_psl.0.3.1.UPF
     MD5 check sum: 872d0d815bb0ce6e24cff79ea4d0ae31
     Pseudo is Projector augmented-wave + core cor, Zval = 15.0
     Generated using &quot;atomic&quot; code by A. Dal Corso  v.6.2.2
     Shape of augmentation charge: PSQ
     Using radial grid of 1187 points,  6 beta functions with: 
                l(1) =   0
                l(2) =   0
                l(3) =   1
                l(4) =   1
                l(5) =   2
                l(6) =   2
     Q(r) pseudized with 0 coefficients 


     PseudoPot. # 3 for Bi read from file:
     ./Bi.pbe-dn-kjpaw_psl.1.0.0.UPF
     MD5 check sum: 29baffecec4108f41a587bcf9a453472
     Pseudo is Projector augmented-wave + core cor, Zval = 15.0
     Generated using &quot;atomic&quot; code by A. Dal Corso  v.6.2.2
     Shape of augmentation charge: PSQ
     Using radial grid of 1283 points,  6 beta functions with: 
                l(1) =   0
                l(2) =   0
                l(3) =   1
                l(4) =   1
                l(5) =   2
                l(6) =   2
     Q(r) pseudized with 0 coefficients 


     PseudoPot. # 4 for Te read from file:
     ./Te.pbe-n-kjpaw_psl.1.0.0.UPF
     MD5 check sum: 960f80ef2db6fd2ef753b89a550c1479
     Pseudo is Projector augmented-wave + core cor, Zval =  6.0
     Generated using &quot;atomic&quot; code by A. Dal Corso  v.6.3
     Shape of augmentation charge: PSQ
     Using radial grid of 1245 points,  6 beta functions with: 
                l(1) =   0
                l(2) =   0
                l(3) =   1
                l(4) =   1
                l(5) =   2
                l(6) =   2
     Q(r) pseudized with 0 coefficients 


     atomic species   valence    mass     pseudopotential
        Mn1           15.00    54.93800     Mn( 1.00)
        Mn2           15.00    54.93800     Mn( 1.00)
        Bi            15.00   208.98000     Bi( 1.00)
        Te             6.00   127.60300     Te( 1.00)

     Starting magnetic structure 
     atomic species   magnetization
        Mn1          0.333
        Mn2         -0.333
        Bi           0.000
        Te           0.000

     No symmetry found


                                    s                        frac. trans.

      isym =  1     identity                                     

 cryst.   s( 1) = (     1          0          0      )
                  (     0          1          0      )
                  (     0          0          1      )

 cart.    s( 1) = (  1.0000000  0.0000000  0.0000000 )
                  (  0.0000000  1.0000000  0.0000000 )
                  (  0.0000000  0.0000000  1.0000000 )


   Cartesian axes

     site n.     atom                  positions (alat units)
         1           Mn1 tau(   1) = (   0.0000000   0.0000000   0.0000000  )
         2           Mn2 tau(   2) = (   0.0000000  -0.0000005   1.4937325  )
         3           Bi  tau(   3) = (   0.0000000  -0.0000002   0.6346869  )
         4           Bi  tau(   4) = (   0.0000000  -0.0000007   2.1284194  )
         5           Bi  tau(   5) = (   0.0000000  -0.0000003   0.8590455  )
         6           Bi  tau(   6) = (   0.0000000  -0.0000008   2.3527780  )
         7           Te  tau(   7) = (   0.0000000  -0.0000001   0.1992042  )
         8           Te  tau(   8) = (   0.0000000  -0.0000006   1.6929366  )
         9           Te  tau(   9) = (   0.0000000  -0.0000004   1.2945283  )
        10           Te  tau(  10) = (   0.0000000  -0.0000009   2.7882608  )
        11           Te  tau(  11) = (   0.0000000  -0.0000001   0.4392470  )
        12           Te  tau(  12) = (   0.0000000  -0.0000006   1.9329794  )
        13           Te  tau(  13) = (   0.0000000  -0.0000004   1.0544855  )
        14           Te  tau(  14) = (   0.0000000  -0.0000009   2.5482179  )

     --------------------------------------------
     DFT-D3 Dispersion Correction (3-body terms):
     --------------------------------------------
       Reference C6 values for interpolation: 

         atom   Coordination number   C6
         Mn1        0.000          1605.50
         Mn1        1.641           479.11
         Mn1        9.885           227.69
         Mn2        0.000          1605.50
         Mn2        1.641           479.11
         Mn2        9.885           227.69
         Te         0.000           851.07
         Te         0.981           850.20
         Te         1.964           837.16
         Bi         0.000          1235.06
         Bi         0.982          1188.09
         Bi         1.966          1132.10
         Bi         2.950          1067.76

       Values used:

         atom   Coordination number  R0_AB[au]  C6      C8
         Mn1        3.848            3.351    479.11  48433.79
         Mn2        3.848            3.351    479.11  48433.79
         Bi         5.275            3.890   1067.76 147315.96
         Bi         5.275            3.890   1067.76 147315.96
         Bi         5.275            3.890   1067.76 147315.96
         Bi         5.275            3.890   1067.76 147315.96
         Te         3.328            3.676    837.16  84978.06
         Te         3.328            3.676    837.16  84978.06
         Te         3.328            3.676    837.16  84978.06
         Te         3.328            3.676    837.16  84978.06
         Te         4.238            3.676    837.16  84978.05
         Te         4.238            3.676    837.16  84978.05
         Te         4.238            3.676    837.16  84978.05
         Te         4.238            3.676    837.16  84978.05

         Molecular C6 ( Ry / a.u.^6 ) =    164642.77


   Crystallographic axes

     site n.     atom                  positions (cryst. coord.)
         1           Mn1 tau(   1) = (  0.0000000  0.0000000  0.0000000  )
         2           Mn2 tau(   2) = (  0.5000000  0.5000000  0.5000000  )
         3           Bi  tau(   3) = (  0.2124500  0.2124500  0.2124500  )
         4           Bi  tau(   4) = (  0.7124500  0.7124500  0.7124500  )
         5           Bi  tau(   5) = (  0.2875500  0.2875500  0.2875500  )
         6           Bi  tau(   6) = (  0.7875500  0.7875500  0.7875500  )
         7           Te  tau(   7) = (  0.0666800  0.0666800  0.0666800  )
         8           Te  tau(   8) = (  0.5666800  0.5666800  0.5666800  )
         9           Te  tau(   9) = (  0.4333200  0.4333200  0.4333200  )
        10           Te  tau(  10) = (  0.9333200  0.9333200  0.9333200  )
        11           Te  tau(  11) = (  0.1470300  0.1470300  0.1470300  )
        12           Te  tau(  12) = (  0.6470300  0.6470300  0.6470300  )
        13           Te  tau(  13) = (  0.3529700  0.3529700  0.3529700  )
        14           Te  tau(  14) = (  0.8529700  0.8529700  0.8529700  )

     number of k points=   251  Marzari-Vanderbilt smearing, width (Ry)=  0.0020
                       cart. coord. in units 2pi/alat
        k(    1) = (   0.0000000   0.0000000   0.0000000), wk =   0.0039841
        k(    2) = (   0.0000000   0.0000000   0.0100420), wk =   0.0039841
        k(    3) = (   0.0000000   0.0000000   0.0200839), wk =   0.0039841
        k(    4) = (   0.0000000   0.0000000   0.0301259), wk =   0.0039841
        k(    5) = (   0.0000000   0.0000000   0.0401678), wk =   0.0039841
        k(    6) = (   0.0000000   0.0000000   0.0502098), wk =   0.0039841
        k(    7) = (   0.0000000   0.0000000   0.0602518), wk =   0.0039841
        k(    8) = (   0.0000000   0.0000000   0.0702937), wk =   0.0039841
        k(    9) = (   0.0000000   0.0000000   0.0803357), wk =   0.0039841
        k(   10) = (   0.0000000   0.0000000   0.0903776), wk =   0.0039841
        k(   11) = (   0.0000000   0.0000000   0.1004196), wk =   0.0039841
        k(   12) = (   0.0000000   0.0000000   0.1104615), wk =   0.0039841
        k(   13) = (   0.0000000   0.0000000   0.1205035), wk =   0.0039841
        k(   14) = (   0.0000000   0.0000000   0.1305455), wk =   0.0039841
        k(   15) = (   0.0000000   0.0000000   0.1405874), wk =   0.0039841
        k(   16) = (   0.0000000   0.0000000   0.1506294), wk =   0.0039841
        k(   17) = (   0.0000000   0.0000000   0.1606713), wk =   0.0039841
        k(   18) = (   0.0000000   0.0000000   0.1707133), wk =   0.0039841
        k(   19) = (   0.0000000   0.0000000   0.1807553), wk =   0.0039841
        k(   20) = (   0.0000000   0.0000000   0.1907972), wk =   0.0039841
        k(   21) = (   0.0000000   0.0000000   0.2008392), wk =   0.0039841
        k(   22) = (   0.0000000   0.0000000   0.2108811), wk =   0.0039841
        k(   23) = (   0.0000000   0.0000000   0.2209231), wk =   0.0039841
        k(   24) = (   0.0000000   0.0000000   0.2309651), wk =   0.0039841
        k(   25) = (   0.0000000   0.0000000   0.2410070), wk =   0.0039841
        k(   26) = (   0.0000000   0.0000000   0.2510490), wk =   0.0039841
        k(   27) = (   0.0000000   0.0000000   0.2610909), wk =   0.0039841
        k(   28) = (   0.0000000   0.0000000   0.2711329), wk =   0.0039841
        k(   29) = (   0.0000000   0.0000000   0.2811749), wk =   0.0039841
        k(   30) = (   0.0000000   0.0000000   0.2912168), wk =   0.0039841
        k(   31) = (   0.0000000   0.0000000   0.3012588), wk =   0.0039841
        k(   32) = (   0.0000000   0.0000000   0.3113007), wk =   0.0039841
        k(   33) = (   0.0000000   0.0000000   0.3213427), wk =   0.0039841
        k(   34) = (   0.0000000   0.0000000   0.3313846), wk =   0.0039841
        k(   35) = (   0.0000000   0.0000000   0.3414266), wk =   0.0039841
        k(   36) = (   0.0000000   0.0000000   0.3514686), wk =   0.0039841
        k(   37) = (   0.0000000   0.0000000   0.3615105), wk =   0.0039841
        k(   38) = (   0.0000000   0.0000000   0.3715525), wk =   0.0039841
        k(   39) = (   0.0000000   0.0000000   0.3815944), wk =   0.0039841
        k(   40) = (   0.0000000   0.0000000   0.3916364), wk =   0.0039841
        k(   41) = (   0.0000000   0.0000000   0.4016784), wk =   0.0039841
        k(   42) = (   0.0000000   0.0000000   0.4117203), wk =   0.0039841
        k(   43) = (   0.0000000   0.0000000   0.4217623), wk =   0.0039841
        k(   44) = (   0.0000000   0.0000000   0.4318042), wk =   0.0039841
        k(   45) = (   0.0000000   0.0000000   0.4418462), wk =   0.0039841
        k(   46) = (   0.0000000   0.0000000   0.4518882), wk =   0.0039841
        k(   47) = (   0.0000000   0.0000000   0.4619301), wk =   0.0039841
        k(   48) = (   0.0000000   0.0000000   0.4719721), wk =   0.0039841
        k(   49) = (   0.0000000   0.0000000   0.4820140), wk =   0.0039841
        k(   50) = (   0.0000000   0.0000000   0.4920560), wk =   0.0039841
        k(   51) = (   0.0000000   0.0000000   0.5020979), wk =   0.0039841
        k(   52) = (   0.0000000  -0.0717761   0.5020979), wk =   0.0039841
        k(   53) = (   0.0000000  -0.1435522   0.5020979), wk =   0.0039841
        k(   54) = (   0.0000000  -0.2153283   0.5020979), wk =   0.0039841
        k(   55) = (   0.0000000  -0.2871044   0.5020979), wk =   0.0039841
        k(   56) = (   0.0000000  -0.3588805   0.5020978), wk =   0.0039841
        k(   57) = (   0.0000000  -0.4306566   0.5020978), wk =   0.0039841
        k(   58) = (   0.0000000  -0.5024326   0.5020978), wk =   0.0039841
        k(   59) = (   0.0000000  -0.5742087   0.5020978), wk =   0.0039841
        k(   60) = (   0.0000000  -0.6459848   0.5020977), wk =   0.0039841
        k(   61) = (   0.0000000  -0.7177609   0.5020977), wk =   0.0039841
        k(   62) = (   0.0000000  -0.7895370   0.5020977), wk =   0.0039841
        k(   63) = (   0.0000000  -0.8613131   0.5020977), wk =   0.0039841
        k(   64) = (   0.0000000  -0.9330892   0.5020976), wk =   0.0039841
        k(   65) = (   0.0000000  -1.0048653   0.5020976), wk =   0.0039841
        k(   66) = (   0.0000000  -1.0766414   0.5020976), wk =   0.0039841
        k(   67) = (   0.0000000  -1.1484175   0.5020976), wk =   0.0039841
        k(   68) = (   0.0000000  -1.2201936   0.5020975), wk =   0.0039841
        k(   69) = (   0.0000000  -1.2919697   0.5020975), wk =   0.0039841
        k(   70) = (   0.0000000  -1.3637458   0.5020975), wk =   0.0039841
        k(   71) = (   0.0000000  -1.4355219   0.5020975), wk =   0.0039841
        k(   72) = (   0.0000000  -1.5072979   0.5020974), wk =   0.0039841
        k(   73) = (   0.0000000  -1.5790740   0.5020974), wk =   0.0039841
        k(   74) = (   0.0000000  -1.6508501   0.5020974), wk =   0.0039841
        k(   75) = (   0.0000000  -1.7226262   0.5020974), wk =   0.0039841
        k(   76) = (   0.0000000  -1.7944023   0.5020973), wk =   0.0039841
        k(   77) = (   0.0000000  -1.8661784   0.5020973), wk =   0.0039841
        k(   78) = (   0.0000000  -1.9379545   0.5020973), wk =   0.0039841
        k(   79) = (   0.0000000  -2.0097306   0.5020973), wk =   0.0039841
        k(   80) = (   0.0000000  -2.0815067   0.5020973), wk =   0.0039841
        k(   81) = (   0.0000000  -2.1532828   0.5020972), wk =   0.0039841
        k(   82) = (   0.0000000  -2.2250589   0.5020972), wk =   0.0039841
        k(   83) = (   0.0000000  -2.2968350   0.5020972), wk =   0.0039841
        k(   84) = (   0.0000000  -2.3686111   0.5020972), wk =   0.0039841
        k(   85) = (   0.0000000  -2.4403872   0.5020971), wk =   0.0039841
        k(   86) = (   0.0000000  -2.5121632   0.5020971), wk =   0.0039841
        k(   87) = (   0.0000000  -2.5839393   0.5020971), wk =   0.0039841
        k(   88) = (   0.0000000  -2.6557154   0.5020971), wk =   0.0039841
        k(   89) = (   0.0000000  -2.7274915   0.5020970), wk =   0.0039841
        k(   90) = (   0.0000000  -2.7992676   0.5020970), wk =   0.0039841
        k(   91) = (   0.0000000  -2.8710437   0.5020970), wk =   0.0039841
        k(   92) = (   0.0000000  -2.9428198   0.5020970), wk =   0.0039841
        k(   93) = (   0.0000000  -3.0145959   0.5020969), wk =   0.0039841
        k(   94) = (   0.0000000  -3.0863720   0.5020969), wk =   0.0039841
        k(   95) = (   0.0000000  -3.1581481   0.5020969), wk =   0.0039841
        k(   96) = (   0.0000000  -3.2299242   0.5020969), wk =   0.0039841
        k(   97) = (   0.0000000  -3.3017003   0.5020968), wk =   0.0039841
        k(   98) = (   0.0000000  -3.3734764   0.5020968), wk =   0.0039841
        k(   99) = (   0.0000000  -3.4452524   0.5020968), wk =   0.0039841
        k(  100) = (   0.0000000  -3.5170285   0.5020968), wk =   0.0039841
        k(  101) = (   0.0000000  -3.5888046   0.5020967), wk =   0.0039841
        k(  102) = (   0.0000000  -3.5900325   0.4987494), wk =   0.0039841
        k(  103) = (   0.0000000  -3.5912603   0.4954021), wk =   0.0039841
        k(  104) = (   0.0000000  -3.5924881   0.4920548), wk =   0.0039841
        k(  105) = (   0.0000000  -3.5937159   0.4887075), wk =   0.0039841
        k(  106) = (   0.0000000  -3.5949438   0.4853601), wk =   0.0039841
        k(  107) = (   0.0000000  -3.5961716   0.4820128), wk =   0.0039841
        k(  108) = (   0.0000000  -3.5973994   0.4786655), wk =   0.0039841
        k(  109) = (   0.0000000  -3.5986272   0.4753182), wk =   0.0039841
        k(  110) = (   0.0000000  -3.5998551   0.4719709), wk =   0.0039841
        k(  111) = (   0.0000000  -3.6010829   0.4686235), wk =   0.0039841
        k(  112) = (   0.0000000  -3.6023107   0.4652762), wk =   0.0039841
        k(  113) = (   0.0000000  -3.6035385   0.4619289), wk =   0.0039841
        k(  114) = (   0.0000000  -3.6047664   0.4585816), wk =   0.0039841
        k(  115) = (   0.0000000  -3.6059942   0.4552343), wk =   0.0039841
        k(  116) = (   0.0000000  -3.6072220   0.4518869), wk =   0.0039841
        k(  117) = (   0.0000000  -3.6084498   0.4485396), wk =   0.0039841
        k(  118) = (   0.0000000  -3.6096777   0.4451923), wk =   0.0039841
        k(  119) = (   0.0000000  -3.6109055   0.4418450), wk =   0.0039841
        k(  120) = (   0.0000000  -3.6121333   0.4384977), wk =   0.0039841
        k(  121) = (   0.0000000  -3.6133611   0.4351503), wk =   0.0039841
        k(  122) = (   0.0000000  -3.6145890   0.4318030), wk =   0.0039841
        k(  123) = (   0.0000000  -3.6158168   0.4284557), wk =   0.0039841
        k(  124) = (   0.0000000  -3.6170446   0.4251084), wk =   0.0039841
        k(  125) = (   0.0000000  -3.6182724   0.4217611), wk =   0.0039841
        k(  126) = (   0.0000000  -3.6195003   0.4184137), wk =   0.0039841
        k(  127) = (   0.0000000  -3.6207281   0.4150664), wk =   0.0039841
        k(  128) = (   0.0000000  -3.6219559   0.4117191), wk =   0.0039841
        k(  129) = (   0.0000000  -3.6231837   0.4083718), wk =   0.0039841
        k(  130) = (   0.0000000  -3.6244116   0.4050245), wk =   0.0039841
        k(  131) = (   0.0000000  -3.6256394   0.4016771), wk =   0.0039841
        k(  132) = (   0.0000000  -3.6268672   0.3983298), wk =   0.0039841
        k(  133) = (   0.0000000  -3.6280950   0.3949825), wk =   0.0039841
        k(  134) = (   0.0000000  -3.6293229   0.3916352), wk =   0.0039841
        k(  135) = (   0.0000000  -3.6305507   0.3882879), wk =   0.0039841
        k(  136) = (   0.0000000  -3.6317785   0.3849405), wk =   0.0039841
        k(  137) = (   0.0000000  -3.6330063   0.3815932), wk =   0.0039841
        k(  138) = (   0.0000000  -3.6342342   0.3782459), wk =   0.0039841
        k(  139) = (   0.0000000  -3.6354620   0.3748986), wk =   0.0039841
        k(  140) = (   0.0000000  -3.6366898   0.3715513), wk =   0.0039841
        k(  141) = (   0.0000000  -3.6379176   0.3682039), wk =   0.0039841
        k(  142) = (   0.0000000  -3.6391455   0.3648566), wk =   0.0039841
        k(  143) = (   0.0000000  -3.6403733   0.3615093), wk =   0.0039841
        k(  144) = (   0.0000000  -3.6416011   0.3581620), wk =   0.0039841
        k(  145) = (   0.0000000  -3.6428289   0.3548147), wk =   0.0039841
        k(  146) = (   0.0000000  -3.6440568   0.3514673), wk =   0.0039841
        k(  147) = (   0.0000000  -3.6452846   0.3481200), wk =   0.0039841
        k(  148) = (   0.0000000  -3.6465124   0.3447727), wk =   0.0039841
        k(  149) = (   0.0000000  -3.6477402   0.3414254), wk =   0.0039841
        k(  150) = (   0.0000000  -3.6489681   0.3380781), wk =   0.0039841
        k(  151) = (   0.0000000  -3.6501959   0.3347307), wk =   0.0039841
        k(  152) = (   0.0000000  -3.5771920   0.3280361), wk =   0.0039841
        k(  153) = (   0.0000000  -3.5041880   0.3213415), wk =   0.0039841
        k(  154) = (   0.0000000  -3.4311841   0.3146469), wk =   0.0039841
        k(  155) = (   0.0000000  -3.3581802   0.3079523), wk =   0.0039841
        k(  156) = (   0.0000000  -3.2851763   0.3012577), wk =   0.0039841
        k(  157) = (   0.0000000  -3.2121724   0.2945631), wk =   0.0039841
        k(  158) = (   0.0000000  -3.1391685   0.2878684), wk =   0.0039841
        k(  159) = (   0.0000000  -3.0661645   0.2811738), wk =   0.0039841
        k(  160) = (   0.0000000  -2.9931606   0.2744792), wk =   0.0039841
        k(  161) = (   0.0000000  -2.9201567   0.2677846), wk =   0.0039841
        k(  162) = (   0.0000000  -2.8471528   0.2610900), wk =   0.0039841
        k(  163) = (   0.0000000  -2.7741489   0.2543954), wk =   0.0039841
        k(  164) = (   0.0000000  -2.7011450   0.2477007), wk =   0.0039841
        k(  165) = (   0.0000000  -2.6281410   0.2410061), wk =   0.0039841
        k(  166) = (   0.0000000  -2.5551371   0.2343115), wk =   0.0039841
        k(  167) = (   0.0000000  -2.4821332   0.2276169), wk =   0.0039841
        k(  168) = (   0.0000000  -2.4091293   0.2209223), wk =   0.0039841
        k(  169) = (   0.0000000  -2.3361254   0.2142277), wk =   0.0039841
        k(  170) = (   0.0000000  -2.2631214   0.2075331), wk =   0.0039841
        k(  171) = (   0.0000000  -2.1901175   0.2008384), wk =   0.0039841
        k(  172) = (   0.0000000  -2.1171136   0.1941438), wk =   0.0039841
        k(  173) = (   0.0000000  -2.0441097   0.1874492), wk =   0.0039841
        k(  174) = (   0.0000000  -1.9711058   0.1807546), wk =   0.0039841
        k(  175) = (   0.0000000  -1.8981019   0.1740600), wk =   0.0039841
        k(  176) = (   0.0000000  -1.8250979   0.1673654), wk =   0.0039841
        k(  177) = (   0.0000000  -1.7520940   0.1606708), wk =   0.0039841
        k(  178) = (   0.0000000  -1.6790901   0.1539761), wk =   0.0039841
        k(  179) = (   0.0000000  -1.6060862   0.1472815), wk =   0.0039841
        k(  180) = (   0.0000000  -1.5330823   0.1405869), wk =   0.0039841
        k(  181) = (   0.0000000  -1.4600784   0.1338923), wk =   0.0039841
        k(  182) = (   0.0000000  -1.3870744   0.1271977), wk =   0.0039841
        k(  183) = (   0.0000000  -1.3140705   0.1205031), wk =   0.0039841
        k(  184) = (   0.0000000  -1.2410666   0.1138085), wk =   0.0039841
        k(  185) = (   0.0000000  -1.1680627   0.1071138), wk =   0.0039841
        k(  186) = (   0.0000000  -1.0950588   0.1004192), wk =   0.0039841
        k(  187) = (   0.0000000  -1.0220548   0.0937246), wk =   0.0039841
        k(  188) = (   0.0000000  -0.9490509   0.0870300), wk =   0.0039841
        k(  189) = (   0.0000000  -0.8760470   0.0803354), wk =   0.0039841
        k(  190) = (   0.0000000  -0.8030431   0.0736408), wk =   0.0039841
        k(  191) = (   0.0000000  -0.7300392   0.0669461), wk =   0.0039841
        k(  192) = (   0.0000000  -0.6570353   0.0602515), wk =   0.0039841
        k(  193) = (   0.0000000  -0.5840313   0.0535569), wk =   0.0039841
        k(  194) = (   0.0000000  -0.5110274   0.0468623), wk =   0.0039841
        k(  195) = (   0.0000000  -0.4380235   0.0401677), wk =   0.0039841
        k(  196) = (   0.0000000  -0.3650196   0.0334731), wk =   0.0039841
        k(  197) = (   0.0000000  -0.2920157   0.0267785), wk =   0.0039841
        k(  198) = (   0.0000000  -0.2190118   0.0200838), wk =   0.0039841
        k(  199) = (   0.0000000  -0.1460078   0.0133892), wk =   0.0039841
        k(  200) = (   0.0000000  -0.0730039   0.0066946), wk =   0.0039841
        k(  201) = (   0.0000000   0.0000000   0.0000000), wk =   0.0039841
        k(  202) = (   0.0632231  -0.0365020   0.0033473), wk =   0.0039841
        k(  203) = (   0.1264463  -0.0730039   0.0066946), wk =   0.0039841
        k(  204) = (   0.1896694  -0.1095059   0.0100419), wk =   0.0039841
        k(  205) = (   0.2528925  -0.1460078   0.0133892), wk =   0.0039841
        k(  206) = (   0.3161157  -0.1825098   0.0167365), wk =   0.0039841
        k(  207) = (   0.3793388  -0.2190118   0.0200838), wk =   0.0039841
        k(  208) = (   0.4425620  -0.2555137   0.0234312), wk =   0.0039841
        k(  209) = (   0.5057851  -0.2920157   0.0267785), wk =   0.0039841
        k(  210) = (   0.5690082  -0.3285176   0.0301258), wk =   0.0039841
        k(  211) = (   0.6322314  -0.3650196   0.0334731), wk =   0.0039841
        k(  212) = (   0.6954545  -0.4015215   0.0368204), wk =   0.0039841
        k(  213) = (   0.7586776  -0.4380235   0.0401677), wk =   0.0039841
        k(  214) = (   0.8219008  -0.4745255   0.0435150), wk =   0.0039841
        k(  215) = (   0.8851239  -0.5110274   0.0468623), wk =   0.0039841
        k(  216) = (   0.9483471  -0.5475294   0.0502096), wk =   0.0039841
        k(  217) = (   1.0115702  -0.5840313   0.0535569), wk =   0.0039841
        k(  218) = (   1.0747933  -0.6205333   0.0569042), wk =   0.0039841
        k(  219) = (   1.1380165  -0.6570353   0.0602515), wk =   0.0039841
        k(  220) = (   1.2012396  -0.6935372   0.0635988), wk =   0.0039841
        k(  221) = (   1.2644627  -0.7300392   0.0669461), wk =   0.0039841
        k(  222) = (   1.3276859  -0.7665411   0.0702935), wk =   0.0039841
        k(  223) = (   1.3909090  -0.8030431   0.0736408), wk =   0.0039841
        k(  224) = (   1.4541322  -0.8395451   0.0769881), wk =   0.0039841
        k(  225) = (   1.5173553  -0.8760470   0.0803354), wk =   0.0039841
        k(  226) = (   1.5805784  -0.9125490   0.0836827), wk =   0.0039841
        k(  227) = (   1.6438016  -0.9490509   0.0870300), wk =   0.0039841
        k(  228) = (   1.7070247  -0.9855529   0.0903773), wk =   0.0039841
        k(  229) = (   1.7702478  -1.0220548   0.0937246), wk =   0.0039841
        k(  230) = (   1.8334710  -1.0585568   0.0970719), wk =   0.0039841
        k(  231) = (   1.8966941  -1.0950588   0.1004192), wk =   0.0039841
        k(  232) = (   1.9599173  -1.1315607   0.1037665), wk =   0.0039841
        k(  233) = (   2.0231404  -1.1680627   0.1071138), wk =   0.0039841
        k(  234) = (   2.0863635  -1.2045646   0.1104611), wk =   0.0039841
        k(  235) = (   2.1495867  -1.2410666   0.1138085), wk =   0.0039841
        k(  236) = (   2.2128098  -1.2775686   0.1171558), wk =   0.0039841
        k(  237) = (   2.2760329  -1.3140705   0.1205031), wk =   0.0039841
        k(  238) = (   2.3392561  -1.3505725   0.1238504), wk =   0.0039841
        k(  239) = (   2.4024792  -1.3870744   0.1271977), wk =   0.0039841
        k(  240) = (   2.4657024  -1.4235764   0.1305450), wk =   0.0039841
        k(  241) = (   2.5289255  -1.4600784   0.1338923), wk =   0.0039841
        k(  242) = (   2.5921486  -1.4965803   0.1372396), wk =   0.0039841
        k(  243) = (   2.6553718  -1.5330823   0.1405869), wk =   0.0039841
        k(  244) = (   2.7185949  -1.5695842   0.1439342), wk =   0.0039841
        k(  245) = (   2.7818180  -1.6060862   0.1472815), wk =   0.0039841
        k(  246) = (   2.8450412  -1.6425881   0.1506288), wk =   0.0039841
        k(  247) = (   2.9082643  -1.6790901   0.1539761), wk =   0.0039841
        k(  248) = (   2.9714875  -1.7155921   0.1573234), wk =   0.0039841
        k(  249) = (   3.0347106  -1.7520940   0.1606708), wk =   0.0039841
        k(  250) = (   3.0979337  -1.7885960   0.1640181), wk =   0.0039841
        k(  251) = (   3.1611569  -1.8250979   0.1673654), wk =   0.0039841

                       cryst. coord.
        k(    1) = (   0.0000000   0.0000000   0.0000000), wk =   0.0039841
        k(    2) = (   0.0100000   0.0100000   0.0100000), wk =   0.0039841
        k(    3) = (   0.0200000   0.0200000   0.0200000), wk =   0.0039841
        k(    4) = (   0.0300000   0.0300000   0.0300000), wk =   0.0039841
        k(    5) = (   0.0400000   0.0400000   0.0400000), wk =   0.0039841
        k(    6) = (   0.0500000   0.0500000   0.0500000), wk =   0.0039841
        k(    7) = (   0.0600000   0.0600000   0.0600000), wk =   0.0039841
        k(    8) = (   0.0700000   0.0700000   0.0700000), wk =   0.0039841
        k(    9) = (   0.0800000   0.0800000   0.0800000), wk =   0.0039841
        k(   10) = (   0.0900000   0.0900000   0.0900000), wk =   0.0039841
        k(   11) = (   0.1000000   0.1000000   0.1000000), wk =   0.0039841
        k(   12) = (   0.1100000   0.1100000   0.1100000), wk =   0.0039841
        k(   13) = (   0.1200000   0.1200000   0.1200000), wk =   0.0039841
        k(   14) = (   0.1300000   0.1300000   0.1300000), wk =   0.0039841
        k(   15) = (   0.1400000   0.1400000   0.1400000), wk =   0.0039841
        k(   16) = (   0.1500000   0.1500000   0.1500000), wk =   0.0039841
        k(   17) = (   0.1600000   0.1600000   0.1600000), wk =   0.0039841
        k(   18) = (   0.1700000   0.1700000   0.1700000), wk =   0.0039841
        k(   19) = (   0.1800000   0.1800000   0.1800000), wk =   0.0039841
        k(   20) = (   0.1900000   0.1900000   0.1900000), wk =   0.0039841
        k(   21) = (   0.2000000   0.2000000   0.2000000), wk =   0.0039841
        k(   22) = (   0.2100000   0.2100000   0.2100000), wk =   0.0039841
        k(   23) = (   0.2200000   0.2200000   0.2200000), wk =   0.0039841
        k(   24) = (   0.2300000   0.2300000   0.2300000), wk =   0.0039841
        k(   25) = (   0.2400000   0.2400000   0.2400000), wk =   0.0039841
        k(   26) = (   0.2500000   0.2500000   0.2500000), wk =   0.0039841
        k(   27) = (   0.2600000   0.2600000   0.2600000), wk =   0.0039841
        k(   28) = (   0.2700000   0.2700000   0.2700000), wk =   0.0039841
        k(   29) = (   0.2800000   0.2800000   0.2800000), wk =   0.0039841
        k(   30) = (   0.2900000   0.2900000   0.2900000), wk =   0.0039841
        k(   31) = (   0.3000000   0.3000000   0.3000000), wk =   0.0039841
        k(   32) = (   0.3100000   0.3100000   0.3100000), wk =   0.0039841
        k(   33) = (   0.3200000   0.3200000   0.3200000), wk =   0.0039841
        k(   34) = (   0.3300000   0.3300000   0.3300000), wk =   0.0039841
        k(   35) = (   0.3400000   0.3400000   0.3400000), wk =   0.0039841
        k(   36) = (   0.3500000   0.3500000   0.3500000), wk =   0.0039841
        k(   37) = (   0.3600000   0.3600000   0.3600000), wk =   0.0039841
        k(   38) = (   0.3700000   0.3700000   0.3700000), wk =   0.0039841
        k(   39) = (   0.3800000   0.3800000   0.3800000), wk =   0.0039841
        k(   40) = (   0.3900000   0.3900000   0.3900000), wk =   0.0039841
        k(   41) = (   0.4000000   0.4000000   0.4000000), wk =   0.0039841
        k(   42) = (   0.4100000   0.4100000   0.4100000), wk =   0.0039841
        k(   43) = (   0.4200000   0.4200000   0.4200000), wk =   0.0039841
        k(   44) = (   0.4300000   0.4300000   0.4300000), wk =   0.0039841
        k(   45) = (   0.4400000   0.4400000   0.4400000), wk =   0.0039841
        k(   46) = (   0.4500000   0.4500000   0.4500000), wk =   0.0039841
        k(   47) = (   0.4600000   0.4600000   0.4600000), wk =   0.0039841
        k(   48) = (   0.4700000   0.4700000   0.4700000), wk =   0.0039841
        k(   49) = (   0.4800000   0.4800000   0.4800000), wk =   0.0039841
        k(   50) = (   0.4900000   0.4900000   0.4900000), wk =   0.0039841
        k(   51) = (   0.5000000   0.5000000   0.5000000), wk =   0.0039841
        k(   52) = (   0.5032773   0.4934455   0.5032773), wk =   0.0039841
        k(   53) = (   0.5065545   0.4868909   0.5065545), wk =   0.0039841
        k(   54) = (   0.5098318   0.4803364   0.5098318), wk =   0.0039841
        k(   55) = (   0.5131091   0.4737818   0.5131091), wk =   0.0039841
        k(   56) = (   0.5163864   0.4672273   0.5163864), wk =   0.0039841
        k(   57) = (   0.5196636   0.4606727   0.5196636), wk =   0.0039841
        k(   58) = (   0.5229409   0.4541182   0.5229409), wk =   0.0039841
        k(   59) = (   0.5262182   0.4475637   0.5262182), wk =   0.0039841
        k(   60) = (   0.5294954   0.4410091   0.5294954), wk =   0.0039841
        k(   61) = (   0.5327727   0.4344546   0.5327727), wk =   0.0039841
        k(   62) = (   0.5360500   0.4279000   0.5360500), wk =   0.0039841
        k(   63) = (   0.5393273   0.4213455   0.5393273), wk =   0.0039841
        k(   64) = (   0.5426045   0.4147909   0.5426045), wk =   0.0039841
        k(   65) = (   0.5458818   0.4082364   0.5458818), wk =   0.0039841
        k(   66) = (   0.5491591   0.4016819   0.5491591), wk =   0.0039841
        k(   67) = (   0.5524363   0.3951273   0.5524363), wk =   0.0039841
        k(   68) = (   0.5557136   0.3885728   0.5557136), wk =   0.0039841
        k(   69) = (   0.5589909   0.3820182   0.5589909), wk =   0.0039841
        k(   70) = (   0.5622682   0.3754637   0.5622682), wk =   0.0039841
        k(   71) = (   0.5655454   0.3689091   0.5655454), wk =   0.0039841
        k(   72) = (   0.5688227   0.3623546   0.5688227), wk =   0.0039841
        k(   73) = (   0.5721000   0.3558001   0.5721000), wk =   0.0039841
        k(   74) = (   0.5753772   0.3492455   0.5753772), wk =   0.0039841
        k(   75) = (   0.5786545   0.3426910   0.5786545), wk =   0.0039841
        k(   76) = (   0.5819318   0.3361364   0.5819318), wk =   0.0039841
        k(   77) = (   0.5852091   0.3295819   0.5852091), wk =   0.0039841
        k(   78) = (   0.5884863   0.3230274   0.5884863), wk =   0.0039841
        k(   79) = (   0.5917636   0.3164728   0.5917636), wk =   0.0039841
        k(   80) = (   0.5950409   0.3099183   0.5950409), wk =   0.0039841
        k(   81) = (   0.5983181   0.3033637   0.5983181), wk =   0.0039841
        k(   82) = (   0.6015954   0.2968092   0.6015954), wk =   0.0039841
        k(   83) = (   0.6048727   0.2902546   0.6048727), wk =   0.0039841
        k(   84) = (   0.6081500   0.2837001   0.6081500), wk =   0.0039841
        k(   85) = (   0.6114272   0.2771456   0.6114272), wk =   0.0039841
        k(   86) = (   0.6147045   0.2705910   0.6147045), wk =   0.0039841
        k(   87) = (   0.6179818   0.2640365   0.6179818), wk =   0.0039841
        k(   88) = (   0.6212590   0.2574819   0.6212590), wk =   0.0039841
        k(   89) = (   0.6245363   0.2509274   0.6245363), wk =   0.0039841
        k(   90) = (   0.6278136   0.2443728   0.6278136), wk =   0.0039841
        k(   91) = (   0.6310909   0.2378183   0.6310909), wk =   0.0039841
        k(   92) = (   0.6343681   0.2312638   0.6343681), wk =   0.0039841
        k(   93) = (   0.6376454   0.2247092   0.6376454), wk =   0.0039841
        k(   94) = (   0.6409227   0.2181547   0.6409227), wk =   0.0039841
        k(   95) = (   0.6441999   0.2116001   0.6441999), wk =   0.0039841
        k(   96) = (   0.6474772   0.2050456   0.6474772), wk =   0.0039841
        k(   97) = (   0.6507545   0.1984910   0.6507545), wk =   0.0039841
        k(   98) = (   0.6540317   0.1919365   0.6540317), wk =   0.0039841
        k(   99) = (   0.6573090   0.1853820   0.6573090), wk =   0.0039841
        k(  100) = (   0.6605863   0.1788274   0.6605863), wk =   0.0039841
        k(  101) = (   0.6638636   0.1722729   0.6638636), wk =   0.0039841
        k(  102) = (   0.6605863   0.1688274   0.6605863), wk =   0.0039841
        k(  103) = (   0.6573090   0.1653820   0.6573090), wk =   0.0039841
        k(  104) = (   0.6540317   0.1619365   0.6540317), wk =   0.0039841
        k(  105) = (   0.6507545   0.1584910   0.6507545), wk =   0.0039841
        k(  106) = (   0.6474772   0.1550456   0.6474772), wk =   0.0039841
        k(  107) = (   0.6441999   0.1516001   0.6441999), wk =   0.0039841
        k(  108) = (   0.6409227   0.1481547   0.6409227), wk =   0.0039841
        k(  109) = (   0.6376454   0.1447092   0.6376454), wk =   0.0039841
        k(  110) = (   0.6343681   0.1412638   0.6343681), wk =   0.0039841
        k(  111) = (   0.6310909   0.1378183   0.6310909), wk =   0.0039841
        k(  112) = (   0.6278136   0.1343728   0.6278136), wk =   0.0039841
        k(  113) = (   0.6245363   0.1309274   0.6245363), wk =   0.0039841
        k(  114) = (   0.6212590   0.1274819   0.6212590), wk =   0.0039841
        k(  115) = (   0.6179818   0.1240365   0.6179818), wk =   0.0039841
        k(  116) = (   0.6147045   0.1205910   0.6147045), wk =   0.0039841
        k(  117) = (   0.6114272   0.1171456   0.6114272), wk =   0.0039841
        k(  118) = (   0.6081500   0.1137001   0.6081500), wk =   0.0039841
        k(  119) = (   0.6048727   0.1102546   0.6048727), wk =   0.0039841
        k(  120) = (   0.6015954   0.1068092   0.6015954), wk =   0.0039841
        k(  121) = (   0.5983181   0.1033637   0.5983181), wk =   0.0039841
        k(  122) = (   0.5950409   0.0999183   0.5950409), wk =   0.0039841
        k(  123) = (   0.5917636   0.0964728   0.5917636), wk =   0.0039841
        k(  124) = (   0.5884863   0.0930274   0.5884863), wk =   0.0039841
        k(  125) = (   0.5852091   0.0895819   0.5852091), wk =   0.0039841
        k(  126) = (   0.5819318   0.0861364   0.5819318), wk =   0.0039841
        k(  127) = (   0.5786545   0.0826910   0.5786545), wk =   0.0039841
        k(  128) = (   0.5753772   0.0792455   0.5753772), wk =   0.0039841
        k(  129) = (   0.5721000   0.0758001   0.5721000), wk =   0.0039841
        k(  130) = (   0.5688227   0.0723546   0.5688227), wk =   0.0039841
        k(  131) = (   0.5655454   0.0689091   0.5655454), wk =   0.0039841
        k(  132) = (   0.5622682   0.0654637   0.5622682), wk =   0.0039841
        k(  133) = (   0.5589909   0.0620182   0.5589909), wk =   0.0039841
        k(  134) = (   0.5557136   0.0585728   0.5557136), wk =   0.0039841
        k(  135) = (   0.5524363   0.0551273   0.5524363), wk =   0.0039841
        k(  136) = (   0.5491591   0.0516819   0.5491591), wk =   0.0039841
        k(  137) = (   0.5458818   0.0482364   0.5458818), wk =   0.0039841
        k(  138) = (   0.5426045   0.0447909   0.5426045), wk =   0.0039841
        k(  139) = (   0.5393273   0.0413455   0.5393273), wk =   0.0039841
        k(  140) = (   0.5360500   0.0379000   0.5360500), wk =   0.0039841
        k(  141) = (   0.5327727   0.0344546   0.5327727), wk =   0.0039841
        k(  142) = (   0.5294954   0.0310091   0.5294954), wk =   0.0039841
        k(  143) = (   0.5262182   0.0275637   0.5262182), wk =   0.0039841
        k(  144) = (   0.5229409   0.0241182   0.5229409), wk =   0.0039841
        k(  145) = (   0.5196636   0.0206727   0.5196636), wk =   0.0039841
        k(  146) = (   0.5163864   0.0172273   0.5163864), wk =   0.0039841
        k(  147) = (   0.5131091   0.0137818   0.5131091), wk =   0.0039841
        k(  148) = (   0.5098318   0.0103364   0.5098318), wk =   0.0039841
        k(  149) = (   0.5065545   0.0068909   0.5065545), wk =   0.0039841
        k(  150) = (   0.5032773   0.0034455   0.5032773), wk =   0.0039841
        k(  151) = (   0.5000000   0.0000000   0.5000000), wk =   0.0039841
        k(  152) = (   0.4900000  -0.0000000   0.4900000), wk =   0.0039841
        k(  153) = (   0.4800000  -0.0000000   0.4800000), wk =   0.0039841
        k(  154) = (   0.4700000  -0.0000000   0.4700000), wk =   0.0039841
        k(  155) = (   0.4600000   0.0000000   0.4600000), wk =   0.0039841
        k(  156) = (   0.4500000  -0.0000000   0.4500000), wk =   0.0039841
        k(  157) = (   0.4400000   0.0000000   0.4400000), wk =   0.0039841
        k(  158) = (   0.4300000   0.0000000   0.4300000), wk =   0.0039841
        k(  159) = (   0.4200000   0.0000000   0.4200000), wk =   0.0039841
        k(  160) = (   0.4100000   0.0000000   0.4100000), wk =   0.0039841
        k(  161) = (   0.4000000   0.0000000   0.4000000), wk =   0.0039841
        k(  162) = (   0.3900000   0.0000000   0.3900000), wk =   0.0039841
        k(  163) = (   0.3800000  -0.0000000   0.3800000), wk =   0.0039841
        k(  164) = (   0.3700000  -0.0000000   0.3700000), wk =   0.0039841
        k(  165) = (   0.3600000  -0.0000000   0.3600000), wk =   0.0039841
        k(  166) = (   0.3500000   0.0000000   0.3500000), wk =   0.0039841
        k(  167) = (   0.3400000  -0.0000000   0.3400000), wk =   0.0039841
        k(  168) = (   0.3300000  -0.0000000   0.3300000), wk =   0.0039841
        k(  169) = (   0.3200000  -0.0000000   0.3200000), wk =   0.0039841
        k(  170) = (   0.3100000   0.0000000   0.3100000), wk =   0.0039841
        k(  171) = (   0.3000000   0.0000000   0.3000000), wk =   0.0039841
        k(  172) = (   0.2900000   0.0000000   0.2900000), wk =   0.0039841
        k(  173) = (   0.2800000   0.0000000   0.2800000), wk =   0.0039841
        k(  174) = (   0.2700000   0.0000000   0.2700000), wk =   0.0039841
        k(  175) = (   0.2600000  -0.0000000   0.2600000), wk =   0.0039841
        k(  176) = (   0.2500000   0.0000000   0.2500000), wk =   0.0039841
        k(  177) = (   0.2400000  -0.0000000   0.2400000), wk =   0.0039841
        k(  178) = (   0.2300000   0.0000000   0.2300000), wk =   0.0039841
        k(  179) = (   0.2200000   0.0000000   0.2200000), wk =   0.0039841
        k(  180) = (   0.2100000   0.0000000   0.2100000), wk =   0.0039841
        k(  181) = (   0.2000000   0.0000000   0.2000000), wk =   0.0039841
        k(  182) = (   0.1900000  -0.0000000   0.1900000), wk =   0.0039841
        k(  183) = (   0.1800000  -0.0000000   0.1800000), wk =   0.0039841
        k(  184) = (   0.1700000  -0.0000000   0.1700000), wk =   0.0039841
        k(  185) = (   0.1600000  -0.0000000   0.1600000), wk =   0.0039841
        k(  186) = (   0.1500000  -0.0000000   0.1500000), wk =   0.0039841
        k(  187) = (   0.1400000   0.0000000   0.1400000), wk =   0.0039841
        k(  188) = (   0.1300000  -0.0000000   0.1300000), wk =   0.0039841
        k(  189) = (   0.1200000  -0.0000000   0.1200000), wk =   0.0039841
        k(  190) = (   0.1100000   0.0000000   0.1100000), wk =   0.0039841
        k(  191) = (   0.1000000   0.0000000   0.1000000), wk =   0.0039841
        k(  192) = (   0.0900000   0.0000000   0.0900000), wk =   0.0039841
        k(  193) = (   0.0800000  -0.0000000   0.0800000), wk =   0.0039841
        k(  194) = (   0.0700000   0.0000000   0.0700000), wk =   0.0039841
        k(  195) = (   0.0600000  -0.0000000   0.0600000), wk =   0.0039841
        k(  196) = (   0.0500000   0.0000000   0.0500000), wk =   0.0039841
        k(  197) = (   0.0400000   0.0000000   0.0400000), wk =   0.0039841
        k(  198) = (   0.0300000   0.0000000   0.0300000), wk =   0.0039841
        k(  199) = (   0.0200000  -0.0000000   0.0200000), wk =   0.0039841
        k(  200) = (   0.0100000  -0.0000000   0.0100000), wk =   0.0039841
        k(  201) = (   0.0000000   0.0000000   0.0000000), wk =   0.0039841
        k(  202) = (   0.0100000  -0.0000000   0.0000000), wk =   0.0039841
        k(  203) = (   0.0200000  -0.0000000   0.0000000), wk =   0.0039841
        k(  204) = (   0.0300000  -0.0000000  -0.0000000), wk =   0.0039841
        k(  205) = (   0.0400000  -0.0000000   0.0000000), wk =   0.0039841
        k(  206) = (   0.0500000   0.0000000   0.0000000), wk =   0.0039841
        k(  207) = (   0.0600000  -0.0000000  -0.0000000), wk =   0.0039841
        k(  208) = (   0.0700000   0.0000000   0.0000000), wk =   0.0039841
        k(  209) = (   0.0800000  -0.0000000   0.0000000), wk =   0.0039841
        k(  210) = (   0.0900000  -0.0000000   0.0000000), wk =   0.0039841
        k(  211) = (   0.1000000   0.0000000   0.0000000), wk =   0.0039841
        k(  212) = (   0.1100000   0.0000000   0.0000000), wk =   0.0039841
        k(  213) = (   0.1200000  -0.0000000  -0.0000000), wk =   0.0039841
        k(  214) = (   0.1300000  -0.0000000   0.0000000), wk =   0.0039841
        k(  215) = (   0.1400000   0.0000000   0.0000000), wk =   0.0039841
        k(  216) = (   0.1500000   0.0000000  -0.0000000), wk =   0.0039841
        k(  217) = (   0.1600000  -0.0000000   0.0000000), wk =   0.0039841
        k(  218) = (   0.1700000  -0.0000000  -0.0000000), wk =   0.0039841
        k(  219) = (   0.1800000  -0.0000000   0.0000000), wk =   0.0039841
        k(  220) = (   0.1900000  -0.0000000  -0.0000000), wk =   0.0039841
        k(  221) = (   0.2000000   0.0000000   0.0000000), wk =   0.0039841
        k(  222) = (   0.2100000   0.0000000   0.0000000), wk =   0.0039841
        k(  223) = (   0.2200000   0.0000000   0.0000000), wk =   0.0039841
        k(  224) = (   0.2300000   0.0000000   0.0000000), wk =   0.0039841
        k(  225) = (   0.2400000  -0.0000000  -0.0000000), wk =   0.0039841
        k(  226) = (   0.2500000   0.0000000   0.0000000), wk =   0.0039841
        k(  227) = (   0.2600000  -0.0000000   0.0000000), wk =   0.0039841
        k(  228) = (   0.2700000   0.0000000  -0.0000000), wk =   0.0039841
        k(  229) = (   0.2800000   0.0000000   0.0000000), wk =   0.0039841
        k(  230) = (   0.2900000   0.0000000   0.0000000), wk =   0.0039841
        k(  231) = (   0.3000000   0.0000000  -0.0000000), wk =   0.0039841
        k(  232) = (   0.3100000   0.0000000   0.0000000), wk =   0.0039841
        k(  233) = (   0.3200000  -0.0000000   0.0000000), wk =   0.0039841
        k(  234) = (   0.3300000   0.0000000   0.0000000), wk =   0.0039841
        k(  235) = (   0.3400000  -0.0000000  -0.0000000), wk =   0.0039841
        k(  236) = (   0.3500000   0.0000000   0.0000000), wk =   0.0039841
        k(  237) = (   0.3600000  -0.0000000   0.0000000), wk =   0.0039841
        k(  238) = (   0.3700000  -0.0000000   0.0000000), wk =   0.0039841
        k(  239) = (   0.3800000  -0.0000000  -0.0000000), wk =   0.0039841
        k(  240) = (   0.3900000   0.0000000   0.0000000), wk =   0.0039841
        k(  241) = (   0.4000000   0.0000000   0.0000000), wk =   0.0039841
        k(  242) = (   0.4100000   0.0000000   0.0000000), wk =   0.0039841
        k(  243) = (   0.4200000   0.0000000   0.0000000), wk =   0.0039841
        k(  244) = (   0.4300000   0.0000000  -0.0000000), wk =   0.0039841
        k(  245) = (   0.4400000   0.0000000   0.0000000), wk =   0.0039841
        k(  246) = (   0.4500000  -0.0000000   0.0000000), wk =   0.0039841
        k(  247) = (   0.4600000   0.0000000   0.0000000), wk =   0.0039841
        k(  248) = (   0.4700000   0.0000000  -0.0000000), wk =   0.0039841
        k(  249) = (   0.4800000  -0.0000000  -0.0000000), wk =   0.0039841
        k(  250) = (   0.4900000  -0.0000000  -0.0000000), wk =   0.0039841
        k(  251) = (   0.5000000   0.0000000   0.0000000), wk =   0.0039841

     Dense  grid:   187971 G-vectors     FFT dimensions: ( 256, 256, 256)

     Dynamical RAM for                 wfc:       2.24 MB

     Dynamical RAM for     wfc (w. buffer):       2.24 MB

     Dynamical RAM for             U proj.:       0.11 MB

     Dynamical RAM for  U proj. (w. buff.):       0.11 MB

     Dynamical RAM for           str. fact:       0.36 MB

     Dynamical RAM for           local pot:       0.00 MB

     Dynamical RAM for          nlocal pot:       2.82 MB

     Dynamical RAM for                qrad:       4.98 MB

     Dynamical RAM for          rho,v,vnew:      24.54 MB

     Dynamical RAM for           G-vectors:       0.38 MB

     Dynamical RAM for          h,s,v(r/c):       1.83 MB

     Dynamical RAM for          <psi|beta>:       0.77 MB

     Dynamical RAM for                 psi:       4.48 MB

     Dynamical RAM for                hpsi:       4.48 MB

     Dynamical RAM for                spsi:       4.48 MB

     Dynamical RAM for      wfcinit/wfcrot:       5.40 MB

     Dynamical RAM for           addusdens:      17.48 MB

     Estimated static dynamical RAM per process >      59.88 MB

     Estimated max dynamical RAM per process >      77.35 MB

     Estimated total dynamical RAM >       2.42 GB

     Check: negative core charge=   -0.000015
     Generating pointlists ...
     new r_m :   0.0448 (alat units)  2.3181 (a.u.) for type    1
     new r_m :   0.0448 (alat units)  2.3181 (a.u.) for type    2
     new r_m :   0.0456 (alat units)  2.3625 (a.u.) for type    3
     new r_m :   0.0448 (alat units)  2.3181 (a.u.) for type    4

     The potential is recalculated from file :
     ./tmp/MnBi2Te4.save/charge-density


     HUBBARD ENERGY =    0.0823  (Ry)

     STARTING HUBBARD OCCUPATIONS:

     =================== HUBBARD OCCUPATIONS ===================
     ------------------------ ATOM    1 ------------------------
     Tr[ns(  1)] (up, down, total) =   4.97666  0.28433  5.26099
     Atomic magnetic moment for atom   1 =   4.69233
     SPIN  1
     eigenvalues:
       0.991  0.991  0.998  0.998  0.998
     eigenvectors (columns):
      -0.000 -0.000 -0.000 -0.000  1.000
      -0.156  0.735  0.660  0.001  0.000
      -0.735 -0.156  0.001 -0.660 -0.000
       0.645  0.137  0.001 -0.752 -0.000
       0.137 -0.645  0.752  0.001  0.000
     occupation matrix ns (before diag.):
       0.998  0.000 -0.000 -0.000  0.000
       0.000  0.994 -0.000  0.000  0.004
      -0.000 -0.000  0.994  0.004  0.000
      -0.000  0.000  0.004  0.995 -0.000
       0.000  0.004  0.000 -0.000  0.995
     SPIN  2
     eigenvalues:
       0.017  0.018  0.018  0.116  0.116
     eigenvectors (columns):
       1.000 -0.000 -0.000 -0.000 -0.000
       0.000 -0.155  0.568 -0.080 -0.805
      -0.000 -0.568 -0.155 -0.805  0.080
      -0.000 -0.780 -0.212  0.586 -0.058
       0.000 -0.212  0.780  0.058  0.586
     occupation matrix ns (before diag.):
       0.017  0.000  0.000 -0.000 -0.000
       0.000  0.082 -0.000  0.000 -0.046
       0.000 -0.000  0.082 -0.046 -0.000
      -0.000  0.000 -0.046  0.052  0.000
      -0.000 -0.046 -0.000  0.000  0.052
     ------------------------ ATOM    2 ------------------------
     Tr[ns(  2)] (up, down, total) =   0.28433  4.97666  5.26098
     Atomic magnetic moment for atom   2 =  -4.69233
     SPIN  1
     eigenvalues:
       0.017  0.018  0.018  0.116  0.116
     eigenvectors (columns):
       1.000  0.000  0.000  0.000 -0.000
      -0.000 -0.041 -0.587 -0.543 -0.599
      -0.000  0.587 -0.041 -0.599  0.543
      -0.000  0.807 -0.056  0.436 -0.395
       0.000 -0.056 -0.807  0.395  0.436
     occupation matrix ns (before diag.):
       0.017  0.000 -0.000  0.000 -0.000
       0.000  0.082 -0.000  0.000 -0.046
      -0.000 -0.000  0.082 -0.046  0.000
       0.000  0.000 -0.046  0.052 -0.000
      -0.000 -0.046  0.000 -0.000  0.052
     SPIN  2
     eigenvalues:
       0.991  0.991  0.998  0.998  0.998
     eigenvectors (columns):
      -0.000 -0.000  0.000  0.000  1.000
       0.360 -0.660  0.657  0.054 -0.000
      -0.660 -0.360 -0.054  0.657 -0.000
       0.579  0.316 -0.061  0.749 -0.000
      -0.316  0.579  0.749  0.061 -0.000
     occupation matrix ns (before diag.):
       0.998  0.000 -0.000  0.000 -0.000
       0.000  0.994  0.000 -0.000  0.004
      -0.000  0.000  0.994  0.004 -0.000
       0.000 -0.000  0.004  0.995  0.000
      -0.000  0.004 -0.000  0.000  0.995

     Number of occupied Hubbard levels =   10.5220

     Atomic wfc used for Hubbard projectors are orthogonalized

     Starting wfcs are   88 randomized atomic wfcs +  112 random wfcs
     Checking if some PAW data can be deallocated... 
       PAW data deallocated on   29 nodes for type:  1
       PAW data deallocated on   29 nodes for type:  2
       PAW data deallocated on   22 nodes for type:  3
       PAW data deallocated on   16 nodes for type:  4

     Band Structure Calculation
     Davidson diagonalization with overlap

     Computing kpt #:     1  of   502
     total cpu time spent up to now is      532.3 secs

     Computing kpt #:     2  of   502
     total cpu time spent up to now is      990.8 secs

     Computing kpt #:     3  of   502
     total cpu time spent up to now is     1451.8 secs

     Computing kpt #:     4  of   502
     total cpu time spent up to now is     1919.2 secs

     Computing kpt #:     5  of   502
     total cpu time spent up to now is     2387.1 secs

     Computing kpt #:     6  of   502
     total cpu time spent up to now is     2854.3 secs

     Computing kpt #:     7  of   502
     total cpu time spent up to now is     3316.0 secs

     Computing kpt #:     8  of   502
     total cpu time spent up to now is     3779.9 secs

     Computing kpt #:     9  of   502
     total cpu time spent up to now is     4411.5 secs

     Computing kpt #:    10  of   502
     total cpu time spent up to now is     4998.7 secs

     Computing kpt #:    11  of   502
     total cpu time spent up to now is     5463.3 secs

     Computing kpt #:    12  of   502
     total cpu time spent up to now is     5952.2 secs

     Computing kpt #:    13  of   502
     total cpu time spent up to now is     6403.0 secs

     Computing kpt #:    14  of   502
     total cpu time spent up to now is     6864.1 secs

     Computing kpt #:    15  of   502
     total cpu time spent up to now is     7330.3 secs

     Computing kpt #:    16  of   502
     total cpu time spent up to now is     7789.0 secs

     Computing kpt #:    17  of   502
     total cpu time spent up to now is     8250.2 secs

     Computing kpt #:    18  of   502
     total cpu time spent up to now is     8712.4 secs

     Computing kpt #:    19  of   502
     total cpu time spent up to now is     9177.3 secs

     Computing kpt #:    20  of   502
     total cpu time spent up to now is     9640.1 secs

     Computing kpt #:    21  of   502
     total cpu time spent up to now is    10163.5 secs

     Computing kpt #:    22  of   502
     c_bands:  1 eigenvalues not converged
     total cpu time spent up to now is    10688.2 secs

     Computing kpt #:    23  of   502
     total cpu time spent up to now is    11221.1 secs

     Computing kpt #:    24  of   502
     total cpu time spent up to now is    11682.0 secs

     Computing kpt #:    25  of   502
     total cpu time spent up to now is    12142.3 secs

     Computing kpt #:    26  of   502
     total cpu time spent up to now is    12604.8 secs

     Computing kpt #:    27  of   502
     total cpu time spent up to now is    13063.8 secs

     Computing kpt #:    28  of   502
     total cpu time spent up to now is    13527.5 secs

     Computing kpt #:    29  of   502
     total cpu time spent up to now is    13989.4 secs

     Computing kpt #:    30  of   502
     total cpu time spent up to now is    14448.9 secs

     Computing kpt #:    31  of   502
     total cpu time spent up to now is    14910.8 secs

     Computing kpt #:    32  of   502
     total cpu time spent up to now is    15370.4 secs

     Computing kpt #:    33  of   502
     total cpu time spent up to now is    15833.8 secs

     Computing kpt #:    34  of   502
     total cpu time spent up to now is    16292.5 secs

     Computing kpt #:    35  of   502
     total cpu time spent up to now is    16750.5 secs

     Computing kpt #:    36  of   502
     total cpu time spent up to now is    17214.4 secs

     Computing kpt #:    37  of   502
     total cpu time spent up to now is    17672.6 secs

     Computing kpt #:    38  of   502
     total cpu time spent up to now is    18131.8 secs

     Computing kpt #:    39  of   502
     total cpu time spent up to now is    18588.3 secs

     Computing kpt #:    40  of   502
     total cpu time spent up to now is    19052.3 secs

     Computing kpt #:    41  of   502
     total cpu time spent up to now is    19513.3 secs

     Computing kpt #:    42  of   502
     total cpu time spent up to now is    19972.6 secs

     Computing kpt #:    43  of   502
     total cpu time spent up to now is    20431.9 secs

     Computing kpt #:    44  of   502
     total cpu time spent up to now is    20890.3 secs

     Computing kpt #:    45  of   502
     total cpu time spent up to now is    21350.4 secs

     Computing kpt #:    46  of   502
     total cpu time spent up to now is    21807.7 secs

     Computing kpt #:    47  of   502
     total cpu time spent up to now is    22272.8 secs

     Computing kpt #:    48  of   502
     total cpu time spent up to now is    22727.7 secs

     Computing kpt #:    49  of   502
     total cpu time spent up to now is    23184.8 secs

     Computing kpt #:    50  of   502
     total cpu time spent up to now is    23640.7 secs

     Computing kpt #:    51  of   502
     total cpu time spent up to now is    24093.1 secs

     Computing kpt #:    52  of   502
     total cpu time spent up to now is    24548.6 secs

     Computing kpt #:    53  of   502
     total cpu time spent up to now is    25013.3 secs

     Computing kpt #:    54  of   502
     total cpu time spent up to now is    25444.3 secs

     Computing kpt #:    55  of   502
     total cpu time spent up to now is    25870.5 secs

     Computing kpt #:    56  of   502
     total cpu time spent up to now is    26301.5 secs

     Computing kpt #:    57  of   502
     total cpu time spent up to now is    26762.2 secs

     Computing kpt #:    58  of   502
     total cpu time spent up to now is    27225.6 secs

     Computing kpt #:    59  of   502
     total cpu time spent up to now is    27687.0 secs

     Computing kpt #:    60  of   502
     total cpu time spent up to now is    28147.2 secs

     Computing kpt #:    61  of   502
     total cpu time spent up to now is    28603.2 secs

     Computing kpt #:    62  of   502
     total cpu time spent up to now is    29061.1 secs

     Computing kpt #:    63  of   502
     total cpu time spent up to now is    29521.7 secs

     Computing kpt #:    64  of   502
     total cpu time spent up to now is    29975.3 secs

     Computing kpt #:    65  of   502
     total cpu time spent up to now is    30435.8 secs

     Computing kpt #:    66  of   502
     total cpu time spent up to now is    30890.6 secs

     Computing kpt #:    67  of   502
     total cpu time spent up to now is    31339.7 secs

     Computing kpt #:    68  of   502
     total cpu time spent up to now is    31763.1 secs

     Computing kpt #:    69  of   502
     total cpu time spent up to now is    32208.6 secs

     Computing kpt #:    70  of   502
     total cpu time spent up to now is    32655.8 secs

     Computing kpt #:    71  of   502
     total cpu time spent up to now is    33099.8 secs

     Computing kpt #:    72  of   502
     total cpu time spent up to now is    33573.1 secs

     Computing kpt #:    73  of   502
     total cpu time spent up to now is    34049.0 secs

     Computing kpt #:    74  of   502
     total cpu time spent up to now is    34490.4 secs

     Computing kpt #:    75  of   502
     total cpu time spent up to now is    34928.4 secs

     Computing kpt #:    76  of   502
     total cpu time spent up to now is    35365.4 secs

     Computing kpt #:    77  of   502
     total cpu time spent up to now is    35859.7 secs

     Computing kpt #:    78  of   502
     total cpu time spent up to now is    36298.7 secs

     Computing kpt #:    79  of   502
     total cpu time spent up to now is    36736.2 secs

     Computing kpt #:    80  of   502
     total cpu time spent up to now is    37202.0 secs

     Computing kpt #:    81  of   502
     total cpu time spent up to now is    37637.2 secs

     Computing kpt #:    82  of   502
     total cpu time spent up to now is    38135.8 secs

     Computing kpt #:    83  of   502
     total cpu time spent up to now is    38570.8 secs

     Computing kpt #:    84  of   502
     total cpu time spent up to now is    39003.3 secs

     Computing kpt #:    85  of   502
     total cpu time spent up to now is    39492.2 secs

     Computing kpt #:    86  of   502
     total cpu time spent up to now is    39958.5 secs

     Computing kpt #:    87  of   502
     total cpu time spent up to now is    40394.3 secs

     Computing kpt #:    88  of   502
     total cpu time spent up to now is    40833.5 secs

     Computing kpt #:    89  of   502
     total cpu time spent up to now is    41304.0 secs

     Computing kpt #:    90  of   502
     total cpu time spent up to now is    41738.0 secs

     Computing kpt #:    91  of   502
     total cpu time spent up to now is    42175.1 secs

     Computing kpt #:    92  of   502
     total cpu time spent up to now is    42616.9 secs

     Computing kpt #:    93  of   502
     total cpu time spent up to now is    43055.0 secs

     Computing kpt #:    94  of   502
     total cpu time spent up to now is    43523.1 secs

     Computing kpt #:    95  of   502
     total cpu time spent up to now is    43969.8 secs

     Computing kpt #:    96  of   502
     total cpu time spent up to now is    44477.6 secs

     Computing kpt #:    97  of   502
     total cpu time spent up to now is    44920.7 secs

     Computing kpt #:    98  of   502
     total cpu time spent up to now is    45363.1 secs

     Computing kpt #:    99  of   502
     total cpu time spent up to now is    45867.4 secs

     Computing kpt #:   100  of   502
     total cpu time spent up to now is    46311.8 secs

     Computing kpt #:   101  of   502
     total cpu time spent up to now is    46757.0 secs

     Computing kpt #:   102  of   502
     total cpu time spent up to now is    47202.0 secs

     Computing kpt #:   103  of   502
     total cpu time spent up to now is    47644.5 secs

     Computing kpt #:   104  of   502
     total cpu time spent up to now is    48086.2 secs

     Computing kpt #:   105  of   502
     total cpu time spent up to now is    48532.3 secs

     Computing kpt #:   106  of   502
     total cpu time spent up to now is    49005.1 secs

     Computing kpt #:   107  of   502
     total cpu time spent up to now is    49448.5 secs

     Computing kpt #:   108  of   502
     total cpu time spent up to now is    49920.3 secs

     Computing kpt #:   109  of   502
     total cpu time spent up to now is    50367.1 secs

     Computing kpt #:   110  of   502
     total cpu time spent up to now is    50818.5 secs

     Computing kpt #:   111  of   502
     total cpu time spent up to now is    51261.5 secs

     Computing kpt #:   112  of   502
     total cpu time spent up to now is    51707.8 secs

     Computing kpt #:   113  of   502
     total cpu time spent up to now is    52187.4 secs

     Computing kpt #:   114  of   502
     total cpu time spent up to now is    52634.0 secs

     Computing kpt #:   115  of   502
     total cpu time spent up to now is    53076.4 secs

     Computing kpt #:   116  of   502
     total cpu time spent up to now is    53518.6 secs

     Computing kpt #:   117  of   502
     total cpu time spent up to now is    53958.0 secs

     Computing kpt #:   118  of   502
     total cpu time spent up to now is    54404.8 secs

     Computing kpt #:   119  of   502
     total cpu time spent up to now is    54842.6 secs

     Computing kpt #:   120  of   502
     total cpu time spent up to now is    55281.7 secs

     Computing kpt #:   121  of   502
     total cpu time spent up to now is    55697.0 secs

     Computing kpt #:   122  of   502
     total cpu time spent up to now is    56108.6 secs

     Computing kpt #:   123  of   502
     total cpu time spent up to now is    56557.0 secs

     Computing kpt #:   124  of   502
     total cpu time spent up to now is    57003.3 secs

     Computing kpt #:   125  of   502
     total cpu time spent up to now is    57444.1 secs

     Computing kpt #:   126  of   502
     total cpu time spent up to now is    57860.9 secs

     Computing kpt #:   127  of   502
     total cpu time spent up to now is    58272.2 secs

     Computing kpt #:   128  of   502
     total cpu time spent up to now is    58718.7 secs

     Computing kpt #:   129  of   502
     total cpu time spent up to now is    59135.0 secs

     Computing kpt #:   130  of   502
     total cpu time spent up to now is    59575.9 secs

     Computing kpt #:   131  of   502
     total cpu time spent up to now is    60362.0 secs

     Computing kpt #:   132  of   502
     total cpu time spent up to now is    61175.1 secs

     Computing kpt #:   133  of   502
     total cpu time spent up to now is    61972.7 secs

     Computing kpt #:   134  of   502
     total cpu time spent up to now is    62842.9 secs

     Computing kpt #:   135  of   502
     total cpu time spent up to now is    63725.5 secs

     Computing kpt #:   136  of   502
     total cpu time spent up to now is    64766.9 secs

     Computing kpt #:   137  of   502
     total cpu time spent up to now is    65634.6 secs

     Computing kpt #:   138  of   502
     total cpu time spent up to now is    66652.8 secs

     Computing kpt #:   139  of   502
     total cpu time spent up to now is    67617.6 secs

     Computing kpt #:   140  of   502
     total cpu time spent up to now is    68645.9 secs

     Computing kpt #:   141  of   502
     total cpu time spent up to now is    69625.9 secs

     Computing kpt #:   142  of   502
     total cpu time spent up to now is    70657.9 secs

     Computing kpt #:   143  of   502
     total cpu time spent up to now is    71951.3 secs

     Computing kpt #:   144  of   502
     total cpu time spent up to now is    72922.5 secs

     Computing kpt #:   145  of   502
     total cpu time spent up to now is    73790.0 secs

     Computing kpt #:   146  of   502
     total cpu time spent up to now is    74624.3 secs

     Computing kpt #:   147  of   502
     total cpu time spent up to now is    75470.1 secs

     Computing kpt #:   148  of   502
     total cpu time spent up to now is    76387.0 secs

     Computing kpt #:   149  of   502
     total cpu time spent up to now is    77295.9 secs

     Computing kpt #:   150  of   502
     total cpu time spent up to now is    78157.6 secs

     Computing kpt #:   151  of   502
     total cpu time spent up to now is    79195.7 secs

     Computing kpt #:   152  of   502
     total cpu time spent up to now is    80118.5 secs

     Computing kpt #:   153  of   502
     total cpu time spent up to now is    81192.2 secs

     Computing kpt #:   154  of   502
     c_bands:  1 eigenvalues not converged
     total cpu time spent up to now is    82257.8 secs

     Computing kpt #:   155  of   502
     total cpu time spent up to now is    83209.4 secs

     Computing kpt #:   156  of   502
     c_bands:  1 eigenvalues not converged
     total cpu time spent up to now is    84347.3 secs

     Computing kpt #:   157  of   502
     total cpu time spent up to now is    85271.8 secs

     Computing kpt #:   158  of   502
     total cpu time spent up to now is    86251.4 secs

     Computing kpt #:   159  of   502
     total cpu time spent up to now is    87230.2 secs

     Computing kpt #:   160  of   502
     total cpu time spent up to now is    88128.8 secs

     Computing kpt #:   161  of   502
     total cpu time spent up to now is    89034.6 secs

     Computing kpt #:   162  of   502
     total cpu time spent up to now is    89939.7 secs

     Computing kpt #:   163  of   502
     c_bands:  1 eigenvalues not converged
     total cpu time spent up to now is    90983.3 secs

     Computing kpt #:   164  of   502
     total cpu time spent up to now is    91759.6 secs

     Computing kpt #:   165  of   502
     total cpu time spent up to now is    92566.8 secs

     Computing kpt #:   166  of   502
     total cpu time spent up to now is    93442.5 secs

     Computing kpt #:   167  of   502
     total cpu time spent up to now is    94285.8 secs

     Computing kpt #:   168  of   502
     total cpu time spent up to now is    95102.3 secs

     Computing kpt #:   169  of   502
     total cpu time spent up to now is    95936.9 secs

     Computing kpt #:   170  of   502
     total cpu time spent up to now is    96763.1 secs

     Computing kpt #:   171  of   502
     total cpu time spent up to now is    97595.0 secs

     Computing kpt #:   172  of   502
     total cpu time spent up to now is    98475.9 secs

     Computing kpt #:   173  of   502
     total cpu time spent up to now is    99494.8 secs

     Computing kpt #:   174  of   502
     total cpu time spent up to now is   100402.0 secs

     Computing kpt #:   175  of   502
     total cpu time spent up to now is   101417.6 secs

     Computing kpt #:   176  of   502
     total cpu time spent up to now is   102445.0 secs

     Computing kpt #:   177  of   502
     total cpu time spent up to now is   103371.7 secs

     Computing kpt #:   178  of   502
     total cpu time spent up to now is   104320.8 secs

     Computing kpt #:   179  of   502
     total cpu time spent up to now is   105241.9 secs

     Computing kpt #:   180  of   502
     total cpu time spent up to now is   106069.1 secs

     Computing kpt #:   181  of   502
     total cpu time spent up to now is   107070.3 secs

     Computing kpt #:   182  of   502
     total cpu time spent up to now is   108057.0 secs

     Computing kpt #:   183  of   502
     total cpu time spent up to now is   109225.5 secs

     Computing kpt #:   184  of   502
     total cpu time spent up to now is   110220.6 secs

     Computing kpt #:   185  of   502
     c_bands:  1 eigenvalues not converged
     total cpu time spent up to now is   111293.2 secs

     Computing kpt #:   186  of   502
     total cpu time spent up to now is   112309.4 secs

     Computing kpt #:   187  of   502
     total cpu time spent up to now is   113232.1 secs

     Computing kpt #:   188  of   502
     total cpu time spent up to now is   114342.7 secs

     Computing kpt #:   189  of   502
     total cpu time spent up to now is   115519.3 secs

     Computing kpt #:   190  of   502
     total cpu time spent up to now is   116624.8 secs

     Computing kpt #:   191  of   502
     total cpu time spent up to now is   117685.3 secs

     Computing kpt #:   192  of   502
     total cpu time spent up to now is   118716.1 secs

     Computing kpt #:   193  of   502
     total cpu time spent up to now is   119837.6 secs

     Computing kpt #:   194  of   502
     total cpu time spent up to now is   120961.9 secs

     Computing kpt #:   195  of   502
     total cpu time spent up to now is   122105.9 secs

     Computing kpt #:   196  of   502
     total cpu time spent up to now is   123191.6 secs

     Computing kpt #:   197  of   502
     total cpu time spent up to now is   124589.7 secs

     Computing kpt #:   198  of   502
     total cpu time spent up to now is   125827.8 secs

     Computing kpt #:   199  of   502
     total cpu time spent up to now is   126959.1 secs

     Computing kpt #:   200  of   502
     total cpu time spent up to now is   128065.9 secs

     Computing kpt #:   201  of   502
     total cpu time spent up to now is   128963.8 secs

     Computing kpt #:   202  of   502
     total cpu time spent up to now is   130072.6 secs

     Computing kpt #:   203  of   502
     total cpu time spent up to now is   131007.8 secs

     Computing kpt #:   204  of   502
     total cpu time spent up to now is   132027.7 secs

     Computing kpt #:   205  of   502
     c_bands:  1 eigenvalues not converged
     total cpu time spent up to now is   133002.8 secs

     Computing kpt #:   206  of   502
     total cpu time spent up to now is   133979.9 secs

     Computing kpt #:   207  of   502
     total cpu time spent up to now is   134944.4 secs

     Computing kpt #:   208  of   502
     total cpu time spent up to now is   135827.2 secs

     Computing kpt #:   209  of   502
     total cpu time spent up to now is   136744.3 secs

     Computing kpt #:   210  of   502
     total cpu time spent up to now is   137723.9 secs

     Computing kpt #:   211  of   502
     total cpu time spent up to now is   138655.5 secs

     Computing kpt #:   212  of   502
     total cpu time spent up to now is   139599.0 secs

     Computing kpt #:   213  of   502
     total cpu time spent up to now is   140586.7 secs

     Computing kpt #:   214  of   502
     total cpu time spent up to now is   141514.6 secs

     Computing kpt #:   215  of   502
     total cpu time spent up to now is   142524.4 secs

     Computing kpt #:   216  of   502
     total cpu time spent up to now is   143461.6 secs

     Computing kpt #:   217  of   502
     total cpu time spent up to now is   144421.3 secs

     Computing kpt #:   218  of   502
     total cpu time spent up to now is   145432.7 secs

     Computing kpt #:   219  of   502
     total cpu time spent up to now is   146249.3 secs

     Computing kpt #:   220  of   502
     c_bands:  1 eigenvalues not converged
     total cpu time spent up to now is   147143.7 secs

     Computing kpt #:   221  of   502
     total cpu time spent up to now is   147955.8 secs

     Computing kpt #:   222  of   502
     total cpu time spent up to now is   148748.8 secs

     Computing kpt #:   223  of   502
     total cpu time spent up to now is   149534.4 secs

     Computing kpt #:   224  of   502
     total cpu time spent up to now is   150340.3 secs

     Computing kpt #:   225  of   502
     total cpu time spent up to now is   151247.1 secs

     Computing kpt #:   226  of   502
     total cpu time spent up to now is   152109.7 secs

     Computing kpt #:   227  of   502
     total cpu time spent up to now is   152999.9 secs

     Computing kpt #:   228  of   502
     total cpu time spent up to now is   153804.5 secs

     Computing kpt #:   229  of   502
     total cpu time spent up to now is   154701.7 secs

     Computing kpt #:   230  of   502
     total cpu time spent up to now is   155635.4 secs

     Computing kpt #:   231  of   502
     total cpu time spent up to now is   156494.8 secs

     Computing kpt #:   232  of   502
     total cpu time spent up to now is   157469.5 secs

     Computing kpt #:   233  of   502
     total cpu time spent up to now is   158414.9 secs

     Computing kpt #:   234  of   502
     total cpu time spent up to now is   159365.2 secs

     Computing kpt #:   235  of   502
     total cpu time spent up to now is   160250.7 secs

     Computing kpt #:   236  of   502
     total cpu time spent up to now is   161154.7 secs

     Computing kpt #:   237  of   502
     total cpu time spent up to now is   162147.6 secs

     Computing kpt #:   238  of   502
     total cpu time spent up to now is   163149.5 secs

     Computing kpt #:   239  of   502
     total cpu time spent up to now is   164214.4 secs

     Computing kpt #:   240  of   502
     c_bands:  1 eigenvalues not converged
     total cpu time spent up to now is   165260.1 secs

     Computing kpt #:   241  of   502
     c_bands:  1 eigenvalues not converged
     total cpu time spent up to now is   166359.9 secs

     Computing kpt #:   242  of   502
     c_bands:  1 eigenvalues not converged
     total cpu time spent up to now is   167351.8 secs

     Computing kpt #:   243  of   502
     total cpu time spent up to now is   168334.5 secs

     Computing kpt #:   244  of   502
     total cpu time spent up to now is   169313.4 secs

     Computing kpt #:   245  of   502
     total cpu time spent up to now is   170243.8 secs

     Computing kpt #:   246  of   502
     total cpu time spent up to now is   171201.1 secs

     Computing kpt #:   247  of   502
     total cpu time spent up to now is   172176.6 secs

     Computing kpt #:   248  of   502
     total cpu time spent up to now is   173203.2 secs

     Computing kpt #:   249  of   502
     total cpu time spent up to now is   174304.1 secs

     Computing kpt #:   250  of   502
     total cpu time spent up to now is   175255.3 secs

     Computing kpt #:   251  of   502
     total cpu time spent up to now is   176152.7 secs

     Computing kpt #:   252  of   502
     total cpu time spent up to now is   177101.4 secs

     Computing kpt #:   253  of   502
     total cpu time spent up to now is   178088.3 secs

     Computing kpt #:   254  of   502
     total cpu time spent up to now is   179037.1 secs

     Computing kpt #:   255  of   502
     total cpu time spent up to now is   180001.8 secs

     Computing kpt #:   256  of   502
     total cpu time spent up to now is   180898.0 secs

     Computing kpt #:   257  of   502
     total cpu time spent up to now is   181775.4 secs

     Computing kpt #:   258  of   502
     total cpu time spent up to now is   182730.6 secs

     Computing kpt #:   259  of   502
     total cpu time spent up to now is   183660.2 secs

     Computing kpt #:   260  of   502
     total cpu time spent up to now is   184667.0 secs

     Computing kpt #:   261  of   502
     total cpu time spent up to now is   185649.3 secs

     Computing kpt #:   262  of   502
     total cpu time spent up to now is   186645.0 secs

     Computing kpt #:   263  of   502
     total cpu time spent up to now is   187489.9 secs

     Computing kpt #:   264  of   502
     total cpu time spent up to now is   188320.3 secs

     Computing kpt #:   265  of   502
     total cpu time spent up to now is   189162.6 secs

     Computing kpt #:   266  of   502
     total cpu time spent up to now is   190068.8 secs

     Computing kpt #:   267  of   502
     total cpu time spent up to now is   190986.9 secs

     Computing kpt #:   268  of   502
     total cpu time spent up to now is   191888.7 secs

     Computing kpt #:   269  of   502
     total cpu time spent up to now is   192826.5 secs

     Computing kpt #:   270  of   502
     total cpu time spent up to now is   193744.3 secs

     Computing kpt #:   271  of   502
     total cpu time spent up to now is   194689.0 secs

     Computing kpt #:   272  of   502
     total cpu time spent up to now is   195618.7 secs

     Computing kpt #:   273  of   502
     total cpu time spent up to now is   196618.7 secs

     Computing kpt #:   274  of   502
     total cpu time spent up to now is   197547.6 secs

     Computing kpt #:   275  of   502
     total cpu time spent up to now is   198517.6 secs

     Computing kpt #:   276  of   502
     total cpu time spent up to now is   199553.6 secs

     Computing kpt #:   277  of   502
     total cpu time spent up to now is   200442.1 secs

     Computing kpt #:   278  of   502
     total cpu time spent up to now is   201336.8 secs

     Computing kpt #:   279  of   502
     total cpu time spent up to now is   202380.8 secs

     Computing kpt #:   280  of   502
     total cpu time spent up to now is   203374.9 secs

     Computing kpt #:   281  of   502
     total cpu time spent up to now is   204272.9 secs

     Computing kpt #:   282  of   502
     total cpu time spent up to now is   205196.6 secs

     Computing kpt #:   283  of   502
     total cpu time spent up to now is   206118.1 secs

     Computing kpt #:   284  of   502
     total cpu time spent up to now is   207053.7 secs

     Computing kpt #:   285  of   502
     total cpu time spent up to now is   208148.9 secs

     Computing kpt #:   286  of   502
     total cpu time spent up to now is   209042.7 secs

     Computing kpt #:   287  of   502
     total cpu time spent up to now is   210082.2 secs

     Computing kpt #:   288  of   502
     total cpu time spent up to now is   211059.8 secs

     Computing kpt #:   289  of   502
     total cpu time spent up to now is   212139.6 secs

     Computing kpt #:   290  of   502
     total cpu time spent up to now is   213073.4 secs

     Computing kpt #:   291  of   502
     total cpu time spent up to now is   213986.7 secs

     Computing kpt #:   292  of   502
     total cpu time spent up to now is   214910.4 secs

     Computing kpt #:   293  of   502
     total cpu time spent up to now is   215838.9 secs

     Computing kpt #:   294  of   502
     total cpu time spent up to now is   216787.9 secs

     Computing kpt #:   295  of   502
     total cpu time spent up to now is   217679.8 secs

     Computing kpt #:   296  of   502
     total cpu time spent up to now is   218651.2 secs

     Computing kpt #:   297  of   502
     total cpu time spent up to now is   219543.0 secs

     Computing kpt #:   298  of   502
     total cpu time spent up to now is   220440.6 secs

     Computing kpt #:   299  of   502
     total cpu time spent up to now is   221344.4 secs

     Computing kpt #:   300  of   502
     total cpu time spent up to now is   222275.3 secs

     Computing kpt #:   301  of   502
     total cpu time spent up to now is   223220.2 secs

     Computing kpt #:   302  of   502
     total cpu time spent up to now is   224187.9 secs

     Computing kpt #:   303  of   502
     total cpu time spent up to now is   225136.0 secs

     Computing kpt #:   304  of   502
     total cpu time spent up to now is   226075.1 secs

     Computing kpt #:   305  of   502
     total cpu time spent up to now is   226964.9 secs

     Computing kpt #:   306  of   502
     total cpu time spent up to now is   227981.6 secs

     Computing kpt #:   307  of   502
     total cpu time spent up to now is   228870.4 secs

     Computing kpt #:   308  of   502
     total cpu time spent up to now is   229874.4 secs

     Computing kpt #:   309  of   502
     total cpu time spent up to now is   230942.6 secs

     Computing kpt #:   310  of   502
     total cpu time spent up to now is   232028.9 secs

     Computing kpt #:   311  of   502
     total cpu time spent up to now is   232897.1 secs

     Computing kpt #:   312  of   502
     total cpu time spent up to now is   233706.5 secs

     Computing kpt #:   313  of   502
     total cpu time spent up to now is   234687.2 secs

     Computing kpt #:   314  of   502
     total cpu time spent up to now is   235688.7 secs

     Computing kpt #:   315  of   502
     total cpu time spent up to now is   236629.7 secs

     Computing kpt #:   316  of   502
     total cpu time spent up to now is   237504.9 secs

     Computing kpt #:   317  of   502
     total cpu time spent up to now is   238397.0 secs

     Computing kpt #:   318  of   502
     total cpu time spent up to now is   239322.4 secs

     Computing kpt #:   319  of   502
     total cpu time spent up to now is   240194.0 secs

     Computing kpt #:   320  of   502
     total cpu time spent up to now is   241120.7 secs

     Computing kpt #:   321  of   502
     total cpu time spent up to now is   242023.9 secs

     Computing kpt #:   322  of   502
     total cpu time spent up to now is   242970.2 secs

     Computing kpt #:   323  of   502
     total cpu time spent up to now is   243961.1 secs

     Computing kpt #:   324  of   502
     total cpu time spent up to now is   244855.6 secs

     Computing kpt #:   325  of   502
     total cpu time spent up to now is   245805.2 secs

     Computing kpt #:   326  of   502
     total cpu time spent up to now is   246597.3 secs

     Computing kpt #:   327  of   502
     total cpu time spent up to now is   247395.2 secs

     Computing kpt #:   328  of   502
     total cpu time spent up to now is   248403.3 secs

     Computing kpt #:   329  of   502
     total cpu time spent up to now is   249247.1 secs

     Computing kpt #:   330  of   502
     total cpu time spent up to now is   250175.9 secs

     Computing kpt #:   331  of   502
     total cpu time spent up to now is   251140.2 secs

     Computing kpt #:   332  of   502
     total cpu time spent up to now is   251952.6 secs

     Computing kpt #:   333  of   502
     total cpu time spent up to now is   252897.8 secs

     Computing kpt #:   334  of   502
     total cpu time spent up to now is   253898.0 secs

     Computing kpt #:   335  of   502
     total cpu time spent up to now is   254876.5 secs

     Computing kpt #:   336  of   502
     total cpu time spent up to now is   255922.7 secs

     Computing kpt #:   337  of   502
     total cpu time spent up to now is   256902.1 secs

     Computing kpt #:   338  of   502
     total cpu time spent up to now is   257698.1 secs

     Computing kpt #:   339  of   502
     total cpu time spent up to now is   258602.7 secs

     Computing kpt #:   340  of   502
     total cpu time spent up to now is   259469.8 secs

     Computing kpt #:   341  of   502
     total cpu time spent up to now is   260426.8 secs

     Computing kpt #:   342  of   502
     total cpu time spent up to now is   261288.8 secs

     Computing kpt #:   343  of   502
     total cpu time spent up to now is   262206.9 secs

     Computing kpt #:   344  of   502
     total cpu time spent up to now is   263177.4 secs

     Computing kpt #:   345  of   502
     total cpu time spent up to now is   264129.3 secs

     Computing kpt #:   346  of   502
     total cpu time spent up to now is   265192.5 secs

     Computing kpt #:   347  of   502
     total cpu time spent up to now is   266135.8 secs

     Computing kpt #:   348  of   502
     total cpu time spent up to now is   266962.2 secs

     Computing kpt #:   349  of   502
     total cpu time spent up to now is   267911.0 secs

     Computing kpt #:   350  of   502
     total cpu time spent up to now is   268754.6 secs

     Computing kpt #:   351  of   502
     total cpu time spent up to now is   269619.1 secs

     Computing kpt #:   352  of   502
     total cpu time spent up to now is   270530.2 secs

     Computing kpt #:   353  of   502
     total cpu time spent up to now is   271470.1 secs

     Computing kpt #:   354  of   502
     total cpu time spent up to now is   272480.1 secs

     Computing kpt #:   355  of   502
     total cpu time spent up to now is   273331.5 secs

     Computing kpt #:   356  of   502
