
     Program BANDS v.7.2 starts on  1Jul2025 at 14: 4:21 

     This program is part of the open-source Quantum ESPRESSO suite
     for quantum simulation of materials; please cite
         "P. Giannozzi et al., J. Phys.:Condens. Matter 21 395502 (2009);
         "P. Giannozzi et al., J. Phys.:Condens. Matter 29 465901 (2017);
         "P. Giannozzi et al., J. Chem. Phys. 152 154105 (2020);
          URL http://www.quantum-espresso.org", 
     in publications or presentations arising from this work. More details at
     http://www.quantum-espresso.org/quote

     Parallel version (MPI), running on    64 processors

     MPI processes distributed on     1 nodes
     R & G space division:  proc/nbgrp/npool/nimage =      64
     185292 MiB available memory on the printing compute node when the environment starts
 

     Reading xml data from directory:

     ./tmp/MnBi2Te4.save/
     file Mn.rel-pbe-spn-kjpaw_psl.0.3.1.UPF: wavefunction(s)  3P 3P 3D renormalized
     file Mn.rel-pbe-spn-kjpaw_psl.0.3.1.UPF: wavefunction(s)  3P 3P 3D renormalized
     file Bi.rel-pbe-dn-kjpaw_psl.1.0.0.UPF: wavefunction(s)  6P 6P 5D 5D renormalized
     file Te.rel-pbe-n-kjpaw_psl.1.0.0.UPF: wavefunction(s)  5S 5P 5P renormalized

     IMPORTANT: XC functional enforced from input :
     Exchange-correlation= PBE
                           (   1   4   3   4   0   0   0)
     Any further DFT definition will be discarded
     Please, verify this is what you really want

 
     Parallelization info
     --------------------
     sticks:   dense  smooth     PW     G-vecs:    dense   smooth      PW
     Min         126     126     39                 2936     2936     509
     Max         127     127     40                 2938     2938     510
     Sum        8079    8079   2519               187971   187971   32619
 
     Using Slab Decomposition
 

     Check: negative core charge=   -0.000015
     Reading collected, re-writing distributed wavefunctions
     high-symmetry point:  0.0000 0.0000 0.0000   x coordinate   0.0000
     high-symmetry point:  6.3223 3.6502 0.1674   x coordinate   7.3023
     high-symmetry point:  3.1612 5.4753 0.0000   x coordinate  10.9564
     high-symmetry point:  0.0000 0.0000 0.0000   x coordinate  17.2787

     Plottable bands (eV) written to file MnBi2Te4.bandsx.out.gnu
     Bands written to file MnBi2Te4.bandsx.out

 **************************************************************************

                    xk=(   0.00000,   0.00000,   0.00000  )

     the magnetic double point group is D_3d (-3m)  [S_6 (-3)   ]
     using the double point group S_6 (-3)   
     there are 12 classes and  6 irreducible representations
     the character table:

       E     -E    C3    -C3   C3^2  -C3^2  i    -i    S6^5  -S6^5 S6    -S6  
                                                                              
G_4+   1.00 -1.00  0.50 -0.50  0.50 -0.50  1.00 -1.00  0.50 -0.50  0.50 -0.50
G_5+   1.00 -1.00  0.50 -0.50  0.50 -0.50  1.00 -1.00  0.50 -0.50  0.50 -0.50
G_6+   1.00 -1.00 -1.00  1.00 -1.00  1.00  1.00 -1.00 -1.00  1.00 -1.00  1.00
G_4-   1.00 -1.00  0.50 -0.50  0.50 -0.50 -1.00  1.00 -0.50  0.50 -0.50  0.50
G_5-   1.00 -1.00  0.50 -0.50  0.50 -0.50 -1.00  1.00 -0.50  0.50 -0.50  0.50
G_6-   1.00 -1.00 -1.00  1.00 -1.00  1.00 -1.00  1.00  1.00 -1.00  1.00 -1.00

     imaginary part

       E     -E    C3    -C3   C3^2  -C3^2  i    -i    S6^5  -S6^5 S6    -S6  
                                                                              
G_4+   0.00  0.00  0.87 -0.87 -0.87  0.87  0.00  0.00  0.87 -0.87 -0.87  0.87
G_5+   0.00  0.00 -0.87  0.87  0.87 -0.87  0.00  0.00 -0.87  0.87  0.87 -0.87
G_6+   0.00  0.00  0.00  0.00  0.00  0.00  0.00  0.00  0.00  0.00  0.00  0.00
G_4-   0.00  0.00  0.87 -0.87 -0.87  0.87  0.00  0.00 -0.87  0.87  0.87 -0.87
G_5-   0.00  0.00 -0.87  0.87  0.87 -0.87  0.00  0.00  0.87 -0.87 -0.87  0.87
G_6-   0.00  0.00  0.00  0.00  0.00  0.00  0.00  0.00  0.00  0.00  0.00  0.00

     the symmetry operations in each class and the name of the first element:

     E             1
                                                                 
     -E           -1
                                                                 
     C3            2
                                                                 
     -C3          -2
                                                                 
     C3^2          3
                                                                 
     -C3^2        -3
                                                                 
      i            4
                                                                 
     -i           -4
                                                                 
     S6^5          5
                                                                 
     -S6^5        -5
                                                                 
     S6            6
                                                                 
     -S6          -6
                                                                 

     Band symmetry, D_3d (-3m)  [S_6 (-3)   ] magnetic double point group,
     using S_6 (-3)   

     e(  1 -  1) =    -73.99387  eV     1   --> G_4+           
     e(  2 -  2) =    -73.98844  eV     1   --> G_5+           
     e(  3 -  3) =    -69.42235  eV     1   --> G_5+           
     e(  4 -  4) =    -69.41697  eV     1   --> G_4+           
     e(  5 -  5) =    -43.24724  eV     1   --> G_5-           
     e(  6 -  6) =    -43.24212  eV     1   --> G_4-           
     e(  7 -  7) =    -42.83277  eV     1   --> G_4-           
     e(  8 -  8) =    -42.82720  eV     1   --> G_5-           
     e(  9 -  9) =    -42.33189  eV     1   --> G_6-           
     e( 10 - 10) =    -42.32650  eV     1   --> G_6-           
     e( 11 - 11) =    -38.60155  eV     1   --> G_4-           
     e( 12 - 12) =    -38.59667  eV     1   --> G_5-           
     e( 13 - 13) =    -38.18037  eV     1   --> G_5-           
     e( 14 - 14) =    -38.17478  eV     1   --> G_4-           
     e( 15 - 15) =    -37.85346  eV     1   --> G_6-           
     e( 16 - 16) =    -37.84825  eV     1   --> G_6-           
     e( 17 - 17) =    -16.98710  eV     1   -->   ?
     e( 18 - 18) =    -16.98696  eV     1   -->   ?
     e( 19 - 19) =    -16.98168  eV     1   --> G_6+           
     e( 20 - 20) =    -16.98155  eV     1   --> G_6-           
     e( 21 - 21) =    -16.97888  eV     1   --> G_4+           
     e( 22 - 22) =    -16.97864  eV     1   --> G_4-           
     e( 23 - 23) =    -16.97413  eV     1   --> G_5+           
     e( 24 - 24) =    -16.97389  eV     1   --> G_5-           
     e( 25 - 25) =    -16.96204  eV     1   --> G_6+           
     e( 26 - 26) =    -16.96188  eV     1   --> G_6-           
     e( 27 - 27) =    -16.96071  eV     1   -->   ?
     e( 28 - 28) =    -16.96059  eV     1   -->   ?
     e( 29 - 29) =    -16.95918  eV     1   --> G_4+           
     e( 30 - 30) =    -16.95894  eV     1   --> G_4-           
     e( 31 - 31) =    -16.95852  eV     1   --> G_5+           
     e( 32 - 32) =    -16.95828  eV     1   --> G_5-           
     e( 33 - 33) =    -14.00328  eV     1   --> G_4+           
     e( 34 - 34) =    -14.00316  eV     1   --> G_4-           
     e( 35 - 35) =    -14.00119  eV     1   --> G_5+           
     e( 36 - 36) =    -14.00105  eV     1   --> G_5-           
     e( 37 - 37) =    -13.99941  eV     1   --> G_5+           
     e( 38 - 38) =    -13.99921  eV     1   --> G_5-           
     e( 39 - 39) =    -13.99786  eV     1   --> G_4+           
     e( 40 - 40) =    -13.99761  eV     1   --> G_4-           
     e( 41 - 41) =    -13.99515  eV     1   --> G_6+           
     e( 42 - 42) =    -13.99500  eV     1   --> G_6-           
     e( 43 - 43) =    -13.99135  eV     1   --> G_6+           
     e( 44 - 44) =    -13.99120  eV     1   --> G_6-           
     e( 45 - 45) =    -13.98349  eV     1   --> G_4+           
     e( 46 - 46) =    -13.98336  eV     1   --> G_4-           
     e( 47 - 47) =    -13.98167  eV     1   --> G_6+           
     e( 48 - 48) =    -13.98153  eV     1   --> G_6-           
     e( 49 - 49) =    -13.97645  eV     1   --> G_5+           
     e( 50 - 50) =    -13.97628  eV     1   --> G_5-           
     e( 51 - 51) =    -13.97558  eV     1   --> G_4+           
     e( 52 - 52) =    -13.97531  eV     1   --> G_4-           
     e( 53 - 53) =    -13.97431  eV     1   --> G_6+           
     e( 54 - 54) =    -13.97416  eV     1   --> G_6-           
     e( 55 - 55) =    -13.96538  eV     1   --> G_5+           
     e( 56 - 56) =    -13.96513  eV     1   --> G_5-           
     e( 57 - 57) =     -5.53322  eV     1   --> G_5+           
     e( 58 - 58) =     -5.52446  eV     1   --> G_4+           
     e( 59 - 59) =     -5.50224  eV     1   --> G_5-           
     e( 60 - 60) =     -5.49310  eV     1   --> G_4-           
     e( 61 - 61) =     -5.31892  eV     1   --> G_5+           
     e( 62 - 62) =     -5.30902  eV     1   --> G_4+           
     e( 63 - 63) =     -5.26903  eV     1   --> G_5-           
     e( 64 - 64) =     -5.25837  eV     1   --> G_4-           
     e( 65 - 65) =     -3.87727  eV     1   --> G_4+           
     e( 66 - 66) =     -3.87649  eV     1   --> G_5+           
     e( 67 - 67) =     -3.66498  eV     1   --> G_5+           
     e( 68 - 68) =     -3.66258  eV     1   --> G_4+           
     e( 69 - 69) =     -3.40479  eV     1   --> G_4-           
     e( 70 - 70) =     -3.40419  eV     1   --> G_5-           
     e( 71 - 71) =     -3.13578  eV     1   --> G_5-           
     e( 72 - 72) =     -3.13455  eV     1   --> G_4-           
     e( 73 - 73) =     -1.49942  eV     1   --> G_5+           
     e( 74 - 74) =     -1.49440  eV     1   --> G_4+           
     e( 75 - 75) =     -1.16600  eV     1   --> G_5-           
     e( 76 - 76) =     -1.16093  eV     1   --> G_4-           
     e( 77 - 77) =     -0.82383  eV     1   --> G_5+           
     e( 78 - 78) =     -0.81677  eV     1   --> G_4+           
     e( 79 - 79) =     -0.54760  eV     1   --> G_5-           
     e( 80 - 80) =     -0.54037  eV     1   --> G_4-           
     e( 81 - 81) =      3.59644  eV     1   --> G_4+           
     e( 82 - 82) =      3.59740  eV     1   --> G_5+           
     e( 83 - 83) =      3.95961  eV     1   --> G_5+           
     e( 84 - 84) =      3.96340  eV     1   --> G_4+           
     e( 85 - 85) =      4.25420  eV     1   --> G_6+           
     e( 86 - 86) =      4.25892  eV     1   --> G_6+           
     e( 87 - 87) =      4.29293  eV     1   --> G_5+           
     e( 88 - 88) =      4.29604  eV     1   --> G_4+           
     e( 89 - 89) =      4.63599  eV     1   --> G_4-           
     e( 90 - 90) =      4.65603  eV     1   --> G_5-           
     e( 91 - 91) =      4.80843  eV     1   --> G_5+           
     e( 92 - 92) =      4.81303  eV     1   --> G_4+           
     e( 93 - 93) =      4.82199  eV     1   --> G_6+           
     e( 94 - 94) =      4.82670  eV     1   --> G_6+           
     e( 95 - 95) =      4.94061  eV     1   --> G_4+           
     e( 96 - 96) =      4.95251  eV     1   --> G_5+           
     e( 97 - 97) =      5.15362  eV     1   --> G_5-           
     e( 98 - 98) =      5.16885  eV     1   --> G_4-           
     e( 99 - 99) =      5.29782  eV     1   --> G_4+           
     e(100 -100) =      5.31582  eV     1   --> G_5+           
     e(101 -101) =      5.51204  eV     1   --> G_4+           
     e(102 -102) =      5.51222  eV     1   --> G_5+           
     e(103 -103) =      5.65381  eV     1   --> G_5+           
     e(104 -104) =      5.66690  eV     1   --> G_4+           
     e(105 -105) =      5.70991  eV     1   --> G_5-           
     e(106 -106) =      5.74616  eV     1   --> G_4-           
     e(107 -107) =      5.95040  eV     1   --> G_5+           
     e(108 -108) =      5.97848  eV     1   --> G_4+           
     e(109 -109) =      6.07479  eV     1   --> G_6+           
     e(110 -110) =      6.07765  eV     1   --> G_6+           
     e(111 -111) =      6.16855  eV     1   --> G_4-           
     e(112 -112) =      6.18677  eV     1   --> G_5-           
     e(113 -113) =      6.31002  eV     1   --> G_6-           
     e(114 -114) =      6.31393  eV     1   --> G_6-           
     e(115 -115) =      6.31489  eV     1   --> G_4-           
     e(116 -116) =      6.32274  eV     1   --> G_5-           
     e(117 -117) =      6.34516  eV     1   --> G_6+           
     e(118 -118) =      6.35527  eV     1   --> G_6+           
     e(119 -119) =      6.55875  eV     1   --> G_6-           
     e(120 -120) =      6.62807  eV     1   --> G_6-           
     e(121 -121) =      6.63599  eV     1   --> G_6+           
     e(122 -122) =      6.70509  eV     1   --> G_6+           
     e(123 -123) =      6.79871  eV     1   --> G_5-           
     e(124 -124) =      6.79884  eV     1   --> G_4-           
     e(125 -125) =      6.95141  eV     1   --> G_5-           
     e(126 -126) =      6.96001  eV     1   --> G_4-           
     e(127 -127) =      7.08526  eV     1   --> G_5+           
     e(128 -128) =      7.09072  eV     1   --> G_4+           
     e(129 -129) =      7.17669  eV     1   --> G_6-           
     e(130 -130) =      7.18156  eV     1   --> G_6-           
     e(131 -131) =      7.26716  eV     1   --> G_6-           
     e(132 -132) =      7.27563  eV     1   --> G_6-           
     e(133 -133) =      7.53575  eV     1   --> G_4+           
     e(134 -134) =      7.53882  eV     1   --> G_5+           
     e(135 -135) =      7.60717  eV     1   --> G_4+           
     e(136 -136) =      7.61862  eV     1   --> G_5+           
     e(137 -137) =      7.73013  eV     1   --> G_6+           
     e(138 -138) =      7.73568  eV     1   --> G_6+           
     e(139 -139) =      7.82701  eV     1   --> G_4-           
     e(140 -140) =      7.82856  eV     1   --> G_5-           
     e(141 -141) =      7.83519  eV     1   --> G_4-           
     e(142 -142) =      7.84100  eV     1   --> G_5-           
     e(143 -143) =      8.01918  eV     1   --> G_4+           
     e(144 -144) =      8.02766  eV     1   --> G_5+           
     e(145 -145) =      8.13579  eV     1   --> G_4-           
     e(146 -146) =      8.13709  eV     1   --> G_5-           
     e(147 -147) =      8.65042  eV     1   --> G_6+           
     e(148 -148) =      8.65199  eV     1   --> G_4+           
     e(149 -149) =      8.65412  eV     1   --> G_5+           
     e(150 -150) =      8.65535  eV     1   --> G_6+           
     e(151 -151) =      8.82207  eV     1   --> G_5+           
     e(152 -152) =      8.82534  eV     1   --> G_4+           
     e(153 -153) =      8.92299  eV     1   --> G_5+           
     e(154 -154) =      8.92819  eV     1   --> G_4+           
     e(155 -155) =      9.10807  eV     1   --> G_6+           
     e(156 -156) =      9.11768  eV     1   --> G_6+           
     e(157 -157) =      9.30349  eV     1   --> G_5+           
     e(158 -158) =      9.31384  eV     1   --> G_4+           
     e(159 -159) =      9.36996  eV     1   --> G_5-           
     e(160 -160) =      9.37833  eV     1   --> G_4-           
     e(161 -161) =      9.43522  eV     1   --> G_6-           
     e(162 -162) =      9.45732  eV     1   --> G_6-           
     e(163 -163) =      9.56287  eV     1   --> G_5-           
     e(164 -164) =      9.57338  eV     1   --> G_4-           
     e(165 -165) =      9.83770  eV     1   --> G_6-           
     e(166 -166) =      9.83834  eV     1   --> G_6+           
     e(167 -167) =      9.84296  eV     1   --> G_6-           
     e(168 -168) =      9.84749  eV     1   --> G_6+           
     e(169 -169) =      9.90198  eV     1   --> G_4+           
     e(170 -170) =      9.90224  eV     1   --> G_5+           
     e(171 -171) =     10.43851  eV     1   --> G_6+           
     e(172 -172) =     10.44489  eV     1   --> G_6+           
     e(173 -173) =     11.46466  eV     1   --> G_5-           
     e(174 -174) =     11.46644  eV     1   --> G_4-           
     e(175 -175) =     11.75984  eV     1   --> G_4-           
     e(176 -176) =     11.76003  eV     1   --> G_5-           
     e(177 -177) =     11.77661  eV     1   --> G_5+           
     e(178 -178) =     11.78268  eV     1   --> G_4+           
     e(179 -179) =     12.54615  eV     1   --> G_4+           
     e(180 -180) =     12.55058  eV     1   --> G_5+           
     e(181 -181) =     12.78666  eV     1   --> G_5-           
     e(182 -182) =     12.79492  eV     1   --> G_4-           
     e(183 -183) =     12.91600  eV     1   --> G_6-           
     e(184 -184) =     12.92148  eV     1   --> G_6-           
     e(185 -185) =     13.27800  eV     1   --> G_4+           
     e(186 -186) =     13.30046  eV     1   --> G_5+           
     e(187 -187) =     13.30449  eV     1   --> G_5-           
     e(188 -188) =     13.32341  eV     1   --> G_4-           
     e(189 -190) =     13.36287  eV     2   --> G_4+           
     e(189 -190) =     13.36287  eV     2   --> G_5+           
     e(191 -191) =     13.38178  eV     1   --> G_6-           
     e(192 -192) =     13.40035  eV     1   --> G_6-           
     e(193 -193) =     13.49711  eV     1   --> G_4-           
     e(194 -194) =     13.57579  eV     1   --> G_5-           
     e(195 -195) =     13.66111  eV     1   --> G_6+           
     e(196 -196) =     13.74369  eV     1   --> G_5+           
     e(197 -197) =     13.74630  eV     1   --> G_6+           
     e(198 -198) =     13.76425  eV     1   --> G_4+           
     e(199 -199) =     13.86088  eV     1   --> G_4-           
     e(200 -200) =     13.86285  eV     1   --> G_5-           

 **************************************************************************

 **************************************************************************

                    xk=(   0.12645,   0.07300,   0.00335  )

     the magnetic double point group is C_2  (2)    [C_1 (1)    ]
     using the double point group C_1 (1)    
     there are  2 classes and  1 irreducible representations
     the character table:

       E     -E   
                  
G_2    1.00 -1.00

     the symmetry operations in each class and the name of the first element:

     E             1
                                                                 
     -E           -1
                                                                 

     Band symmetry, C_2  (2)    [C_1 (1)    ] magnetic double point group,
     using C_1 (1)    

     e(  1 -  1) =    -73.99387  eV     1   --> G_2            
     e(  2 -  2) =    -73.98844  eV     1   --> G_2            
     e(  3 -  3) =    -69.42235  eV     1   --> G_2            
     e(  4 -  4) =    -69.41697  eV     1   --> G_2            
     e(  5 -  5) =    -43.24724  eV     1   --> G_2            
     e(  6 -  6) =    -43.24212  eV     1   --> G_2            
     e(  7 -  7) =    -42.83277  eV     1   --> G_2            
     e(  8 -  8) =    -42.82720  eV     1   --> G_2            
     e(  9 -  9) =    -42.33189  eV     1   --> G_2            
     e( 10 - 10) =    -42.32650  eV     1   --> G_2            
     e( 11 - 11) =    -38.60155  eV     1   --> G_2            
     e( 12 - 12) =    -38.59667  eV     1   --> G_2            
     e( 13 - 13) =    -38.18037  eV     1   --> G_2            
     e( 14 - 14) =    -38.17478  eV     1   --> G_2            
     e( 15 - 15) =    -37.85346  eV     1   --> G_2            
     e( 16 - 16) =    -37.84826  eV     1   --> G_2            
     e( 17 - 18) =    -16.98702  eV     2   -->   2 G_2            
     e( 19 - 20) =    -16.98161  eV     2   -->   2 G_2            
     e( 21 - 21) =    -16.97886  eV     1   --> G_2            
     e( 22 - 22) =    -16.97866  eV     1   --> G_2            
     e( 23 - 23) =    -16.97411  eV     1   --> G_2            
     e( 24 - 24) =    -16.97391  eV     1   --> G_2            
     e( 25 - 26) =    -16.96195  eV     2   -->   2 G_2            
     e( 27 - 28) =    -16.96065  eV     2   -->   2 G_2            
     e( 29 - 29) =    -16.95916  eV     1   --> G_2            
     e( 30 - 30) =    -16.95896  eV     1   --> G_2            
     e( 31 - 31) =    -16.95849  eV     1   --> G_2            
     e( 32 - 32) =    -16.95829  eV     1   --> G_2            
     e( 33 - 34) =    -14.00318  eV     2   -->   2 G_2            
     e( 35 - 36) =    -14.00110  eV     2   -->   2 G_2            
     e( 37 - 37) =    -13.99938  eV     1   --> G_2            
     e( 38 - 38) =    -13.99920  eV     1   --> G_2            
     e( 39 - 39) =    -13.99783  eV     1   --> G_2            
     e( 40 - 40) =    -13.99761  eV     1   --> G_2            
     e( 41 - 41) =    -13.99515  eV     1   --> G_2            
     e( 42 - 42) =    -13.99504  eV     1   --> G_2            
     e( 43 - 43) =    -13.99135  eV     1   --> G_2            
     e( 44 - 44) =    -13.99124  eV     1   --> G_2            
     e( 45 - 46) =    -13.98339  eV     2   -->   2 G_2            
     e( 47 - 47) =    -13.98167  eV     1   --> G_2            
     e( 48 - 48) =    -13.98157  eV     1   --> G_2            
     e( 49 - 49) =    -13.97636  eV     1   --> G_2            
     e( 50 - 50) =    -13.97625  eV     1   --> G_2            
     e( 51 - 51) =    -13.97554  eV     1   --> G_2            
     e( 52 - 52) =    -13.97531  eV     1   --> G_2            
     e( 53 - 53) =    -13.97431  eV     1   --> G_2            
     e( 54 - 54) =    -13.97420  eV     1   --> G_2            
     e( 55 - 55) =    -13.96533  eV     1   --> G_2            
     e( 56 - 56) =    -13.96512  eV     1   --> G_2            
     e( 57 - 57) =     -5.52969  eV     1   --> G_2            
     e( 58 - 58) =     -5.52093  eV     1   --> G_2            
     e( 59 - 59) =     -5.49874  eV     1   --> G_2            
     e( 60 - 60) =     -5.48960  eV     1   --> G_2            
     e( 61 - 61) =     -5.31547  eV     1   --> G_2            
     e( 62 - 62) =     -5.30557  eV     1   --> G_2            
     e( 63 - 63) =     -5.26561  eV     1   --> G_2            
     e( 64 - 64) =     -5.25496  eV     1   --> G_2            
     e( 65 - 65) =     -3.87468  eV     1   --> G_2            
     e( 66 - 66) =     -3.87390  eV     1   --> G_2            
     e( 67 - 67) =     -3.66259  eV     1   --> G_2            
     e( 68 - 68) =     -3.66018  eV     1   --> G_2            
     e( 69 - 69) =     -3.40281  eV     1   --> G_2            
     e( 70 - 70) =     -3.40221  eV     1   --> G_2            
     e( 71 - 71) =     -3.13416  eV     1   --> G_2            
     e( 72 - 72) =     -3.13293  eV     1   --> G_2            
     e( 73 - 73) =     -1.50014  eV     1   --> G_2            
     e( 74 - 74) =     -1.49510  eV     1   --> G_2            
     e( 75 - 75) =     -1.16811  eV     1   --> G_2            
     e( 76 - 76) =     -1.16302  eV     1   --> G_2            
     e( 77 - 77) =     -0.82677  eV     1   --> G_2            
     e( 78 - 78) =     -0.81970  eV     1   --> G_2            
     e( 79 - 79) =     -0.55225  eV     1   --> G_2            
     e( 80 - 80) =     -0.54501  eV     1   --> G_2            
     e( 81 - 81) =      3.59643  eV     1   --> G_2            
     e( 82 - 82) =      3.59736  eV     1   --> G_2            
     e( 83 - 83) =      3.95734  eV     1   --> G_2            
     e( 84 - 84) =      3.96114  eV     1   --> G_2            
     e( 85 - 85) =      4.25201  eV     1   --> G_2            
     e( 86 - 86) =      4.25671  eV     1   --> G_2            
     e( 87 - 87) =      4.28811  eV     1   --> G_2            
     e( 88 - 88) =      4.29134  eV     1   --> G_2            
     e( 89 - 89) =      4.63630  eV     1   --> G_2            
     e( 90 - 90) =      4.65592  eV     1   --> G_2            
     e( 91 - 91) =      4.80740  eV     1   --> G_2            
     e( 92 - 92) =      4.81199  eV     1   --> G_2            
     e( 93 - 93) =      4.82052  eV     1   --> G_2            
     e( 94 - 94) =      4.82516  eV     1   --> G_2            
     e( 95 - 95) =      4.92919  eV     1   --> G_2            
     e( 96 - 96) =      4.94191  eV     1   --> G_2            
     e( 97 - 97) =      5.12365  eV     1   --> G_2            
     e( 98 - 98) =      5.13614  eV     1   --> G_2            
     e( 99 - 99) =      5.29032  eV     1   --> G_2            
     e(100 -100) =      5.30718  eV     1   --> G_2            
     e(101 -101) =      5.49479  eV     1   --> G_2            
     e(102 -102) =      5.49667  eV     1   --> G_2            
     e(103 -103) =      5.64286  eV     1   --> G_2            
     e(104 -104) =      5.64946  eV     1   --> G_2            
     e(105 -105) =      5.71891  eV     1   --> G_2            
     e(106 -106) =      5.74788  eV     1   --> G_2            
     e(107 -107) =      5.94178  eV     1   --> G_2            
     e(108 -108) =      5.96751  eV     1   --> G_2            
     e(109 -109) =      6.07128  eV     1   --> G_2            
     e(110 -110) =      6.07380  eV     1   --> G_2            
     e(111 -111) =      6.14122  eV     1   --> G_2            
     e(112 -112) =      6.15265  eV     1   --> G_2            
     e(113 -113) =      6.26168  eV     1   --> G_2            
     e(114 -114) =      6.26325  eV     1   --> G_2            
     e(115 -115) =      6.30837  eV     1   --> G_2            
     e(116 -116) =      6.31216  eV     1   --> G_2            
     e(117 -117) =      6.38743  eV     1   --> G_2            
     e(118 -118) =      6.39614  eV     1   --> G_2            
     e(119 -119) =      6.56103  eV     1   --> G_2            
     e(120 -120) =      6.62241  eV     1   --> G_2            
     e(121 -121) =      6.63164  eV     1   --> G_2            
     e(122 -122) =      6.67984  eV     1   --> G_2            
     e(123 -123) =      6.80781  eV     1   --> G_2            
     e(124 -124) =      6.80794  eV     1   --> G_2            
     e(125 -125) =      6.98716  eV     1   --> G_2            
     e(126 -126) =      6.99349  eV     1   --> G_2            
     e(127 -127) =      7.03752  eV     1   --> G_2            
     e(128 -128) =      7.04358  eV     1   --> G_2            
     e(129 -129) =      7.15470  eV     1   --> G_2            
     e(130 -130) =      7.15889  eV     1   --> G_2            
     e(131 -131) =      7.25862  eV     1   --> G_2            
     e(132 -132) =      7.26599  eV     1   --> G_2            
     e(133 -133) =      7.54184  eV     1   --> G_2            
     e(134 -134) =      7.54378  eV     1   --> G_2            
     e(135 -135) =      7.59975  eV     1   --> G_2            
     e(136 -136) =      7.60972  eV     1   --> G_2            
     e(137 -137) =      7.68029  eV     1   --> G_2            
     e(138 -138) =      7.68580  eV     1   --> G_2            
     e(139 -139) =      7.83837  eV     1   --> G_2            
     e(140 -140) =      7.84437  eV     1   --> G_2            
     e(141 -141) =      7.90257  eV     1   --> G_2            
     e(142 -142) =      7.90589  eV     1   --> G_2            
     e(143 -143) =      8.02659  eV     1   --> G_2            
     e(144 -144) =      8.03522  eV     1   --> G_2            
     e(145 -145) =      8.14493  eV     1   --> G_2            
     e(146 -146) =      8.14620  eV     1   --> G_2            
     e(147 -147) =      8.65528  eV     1   --> G_2            
     e(148 -148) =      8.65964  eV     1   --> G_2            
     e(149 -149) =      8.66009  eV     1   --> G_2            
     e(150 -150) =      8.66220  eV     1   --> G_2            
     e(151 -151) =      8.82905  eV     1   --> G_2            
     e(152 -152) =      8.83224  eV     1   --> G_2            
     e(153 -153) =      8.93705  eV     1   --> G_2            
     e(154 -154) =      8.94273  eV     1   --> G_2            
     e(155 -155) =      9.10192  eV     1   --> G_2            
     e(156 -156) =      9.10980  eV     1   --> G_2            
     e(157 -157) =      9.29820  eV     1   --> G_2            
     e(158 -158) =      9.30993  eV     1   --> G_2            
     e(159 -159) =      9.40651  eV     1   --> G_2            
     e(160 -160) =      9.41281  eV     1   --> G_2            
     e(161 -161) =      9.45927  eV     1   --> G_2            
     e(162 -162) =      9.47744  eV     1   --> G_2            
     e(163 -163) =      9.55887  eV     1   --> G_2            
     e(164 -164) =      9.57034  eV     1   --> G_2            
     e(165 -165) =      9.79753  eV     1   --> G_2            
     e(166 -166) =      9.80140  eV     1   --> G_2            
     e(167 -167) =      9.84856  eV     1   --> G_2            
     e(168 -168) =      9.85653  eV     1   --> G_2            
     e(169 -169) =      9.94541  eV     1   --> G_2            
     e(170 -170) =      9.94763  eV     1   --> G_2            
     e(171 -171) =     10.42811  eV     1   --> G_2            
     e(172 -172) =     10.43417  eV     1   --> G_2            
     e(173 -173) =     11.47903  eV     1   --> G_2            
     e(174 -174) =     11.48073  eV     1   --> G_2            
     e(175 -175) =     11.74825  eV     1   --> G_2            
     e(176 -176) =     11.74945  eV     1   --> G_2            
     e(177 -177) =     11.80963  eV     1   --> G_2            
     e(178 -178) =     11.81419  eV     1   --> G_2            
     e(179 -179) =     12.56074  eV     1   --> G_2            
     e(180 -180) =     12.56548  eV     1   --> G_2            
     e(181 -181) =     12.78448  eV     1   --> G_2            
     e(182 -182) =     12.79118  eV     1   --> G_2            
     e(183 -183) =     12.90331  eV     1   --> G_2            
     e(184 -184) =     12.90755  eV     1   --> G_2            
     e(185 -185) =     13.19232  eV     1   --> G_2            
     e(186 -186) =     13.20945  eV     1   --> G_2            
     e(187 -187) =     13.34457  eV     1   --> G_2            
     e(188 -188) =     13.35526  eV     1   --> G_2            
     e(189 -189) =     13.37136  eV     1   --> G_2            
     e(190 -190) =     13.37562  eV     1   --> G_2            
     e(191 -191) =     13.43361  eV     1   --> G_2            
     e(192 -192) =     13.44256  eV     1   --> G_2            
     e(193 -193) =     13.48178  eV     1   --> G_2            
     e(194 -194) =     13.54895  eV     1   --> G_2            
     e(195 -195) =     13.64460  eV     1   --> G_2            
     e(196 -196) =     13.70592  eV     1   --> G_2            
     e(197 -197) =     13.74026  eV     1   --> G_2            
     e(198 -198) =     13.76093  eV     1   --> G_2            
     e(199 -199) =     13.86847  eV     1   --> G_2            
     e(200 -200) =     13.87723  eV     1   --> G_2            

 **************************************************************************

 **************************************************************************

                    xk=(   0.25289,   0.14601,   0.00669  )

     Band symmetry, C_2  (2)    [C_1 (1)    ] magnetic double point group,
     using C_1 (1)    

     e(  1 -  1) =    -73.99387  eV     1   --> G_2            
     e(  2 -  2) =    -73.98844  eV     1   --> G_2            
     e(  3 -  3) =    -69.42235  eV     1   --> G_2            
     e(  4 -  4) =    -69.41697  eV     1   --> G_2            
     e(  5 -  5) =    -43.24724  eV     1   --> G_2            
     e(  6 -  6) =    -43.24212  eV     1   --> G_2            
     e(  7 -  7) =    -42.83277  eV     1   --> G_2            
     e(  8 -  8) =    -42.82720  eV     1   --> G_2            
     e(  9 -  9) =    -42.33189  eV     1   --> G_2            
     e( 10 - 10) =    -42.32650  eV     1   --> G_2            
     e( 11 - 11) =    -38.60156  eV     1   --> G_2            
     e( 12 - 12) =    -38.59668  eV     1   --> G_2            
     e( 13 - 13) =    -38.18037  eV     1   --> G_2            
     e( 14 - 14) =    -38.17478  eV     1   --> G_2            
     e( 15 - 15) =    -37.85347  eV     1   --> G_2            
     e( 16 - 16) =    -37.84826  eV     1   --> G_2            
     e( 17 - 18) =    -16.98695  eV     2   -->   2 G_2            
     e( 19 - 20) =    -16.98154  eV     2   -->   2 G_2            
     e( 21 - 21) =    -16.97885  eV     1   --> G_2            
     e( 22 - 22) =    -16.97868  eV     1   --> G_2            
     e( 23 - 23) =    -16.97410  eV     1   --> G_2            
     e( 24 - 24) =    -16.97393  eV     1   --> G_2            
     e( 25 - 26) =    -16.96188  eV     2   -->   2 G_2            
     e( 27 - 28) =    -16.96058  eV     2   -->   2 G_2            
     e( 29 - 29) =    -16.95915  eV     1   --> G_2            
     e( 30 - 30) =    -16.95897  eV     1   --> G_2            
     e( 31 - 31) =    -16.95849  eV     1   --> G_2            
     e( 32 - 32) =    -16.95831  eV     1   --> G_2            
     e( 33 - 34) =    -14.00306  eV     2   -->   2 G_2            
     e( 35 - 36) =    -14.00098  eV     2   -->   2 G_2            
     e( 37 - 37) =    -13.99931  eV     1   --> G_2            
     e( 38 - 38) =    -13.99917  eV     1   --> G_2            
     e( 39 - 39) =    -13.99777  eV     1   --> G_2            
     e( 40 - 40) =    -13.99759  eV     1   --> G_2            
     e( 41 - 42) =    -13.99522  eV     2   -->   2 G_2            
     e( 43 - 44) =    -13.99142  eV     2   -->   2 G_2            
     e( 45 - 46) =    -13.98325  eV     2   -->   2 G_2            
     e( 47 - 48) =    -13.98175  eV     2   -->   2 G_2            
     e( 49 - 50) =    -13.97624  eV     2   -->   2 G_2            
     e( 51 - 51) =    -13.97546  eV     1   --> G_2            
     e( 52 - 52) =    -13.97528  eV     1   --> G_2            
     e( 53 - 54) =    -13.97439  eV     2   -->   2 G_2            
     e( 55 - 55) =    -13.96526  eV     1   --> G_2            
     e( 56 - 56) =    -13.96509  eV     1   --> G_2            
     e( 57 - 57) =     -5.51913  eV     1   --> G_2            
     e( 58 - 58) =     -5.51037  eV     1   --> G_2            
     e( 59 - 59) =     -5.48823  eV     1   --> G_2            
     e( 60 - 60) =     -5.47909  eV     1   --> G_2            
     e( 61 - 61) =     -5.30513  eV     1   --> G_2            
     e( 62 - 62) =     -5.29523  eV     1   --> G_2            
     e( 63 - 63) =     -5.25537  eV     1   --> G_2            
     e( 64 - 64) =     -5.24471  eV     1   --> G_2            
     e( 65 - 65) =     -3.86692  eV     1   --> G_2            
     e( 66 - 66) =     -3.86614  eV     1   --> G_2            
     e( 67 - 67) =     -3.65543  eV     1   --> G_2            
     e( 68 - 68) =     -3.65302  eV     1   --> G_2            
     e( 69 - 69) =     -3.39688  eV     1   --> G_2            
     e( 70 - 70) =     -3.39628  eV     1   --> G_2            
     e( 71 - 71) =     -3.12932  eV     1   --> G_2            
     e( 72 - 72) =     -3.12809  eV     1   --> G_2            
     e( 73 - 73) =     -1.50237  eV     1   --> G_2            
     e( 74 - 74) =     -1.49727  eV     1   --> G_2            
     e( 75 - 75) =     -1.17447  eV     1   --> G_2            
     e( 76 - 76) =     -1.16934  eV     1   --> G_2            
     e( 77 - 77) =     -0.83567  eV     1   --> G_2            
     e( 78 - 78) =     -0.82854  eV     1   --> G_2            
     e( 79 - 79) =     -0.56620  eV     1   --> G_2            
     e( 80 - 80) =     -0.55892  eV     1   --> G_2            
     e( 81 - 81) =      3.59607  eV     1   --> G_2            
     e( 82 - 82) =      3.59689  eV     1   --> G_2            
     e( 83 - 83) =      3.95062  eV     1   --> G_2            
     e( 84 - 84) =      3.95446  eV     1   --> G_2            
     e( 85 - 85) =      4.24176  eV     1   --> G_2            
     e( 86 - 86) =      4.24628  eV     1   --> G_2            
     e( 87 - 87) =      4.27848  eV     1   --> G_2            
     e( 88 - 88) =      4.28203  eV     1   --> G_2            
     e( 89 - 89) =      4.63477  eV     1   --> G_2            
     e( 90 - 90) =      4.65327  eV     1   --> G_2            
     e( 91 - 91) =      4.80404  eV     1   --> G_2            
     e( 92 - 92) =      4.80837  eV     1   --> G_2            
     e( 93 - 93) =      4.81545  eV     1   --> G_2            
     e( 94 - 94) =      4.81977  eV     1   --> G_2            
     e( 95 - 95) =      4.89063  eV     1   --> G_2            
     e( 96 - 96) =      4.90528  eV     1   --> G_2            
     e( 97 - 97) =      5.05613  eV     1   --> G_2            
     e( 98 - 98) =      5.06282  eV     1   --> G_2            
     e( 99 - 99) =      5.25936  eV     1   --> G_2            
     e(100 -100) =      5.27319  eV     1   --> G_2            
     e(101 -101) =      5.44392  eV     1   --> G_2            
     e(102 -102) =      5.44920  eV     1   --> G_2            
     e(103 -103) =      5.61392  eV     1   --> G_2            
     e(104 -104) =      5.61664  eV     1   --> G_2            
     e(105 -105) =      5.72278  eV     1   --> G_2            
     e(106 -106) =      5.74350  eV     1   --> G_2            
     e(107 -107) =      5.91732  eV     1   --> G_2            
     e(108 -108) =      5.93612  eV     1   --> G_2            
     e(109 -109) =      6.04006  eV     1   --> G_2            
     e(110 -110) =      6.05018  eV     1   --> G_2            
     e(111 -111) =      6.08156  eV     1   --> G_2            
     e(112 -112) =      6.09125  eV     1   --> G_2            
     e(113 -113) =      6.19176  eV     1   --> G_2            
     e(114 -114) =      6.19510  eV     1   --> G_2            
     e(115 -115) =      6.30204  eV     1   --> G_2            
     e(116 -116) =      6.30551  eV     1   --> G_2            
     e(117 -117) =      6.40016  eV     1   --> G_2            
     e(118 -118) =      6.41086  eV     1   --> G_2            
     e(119 -119) =      6.54901  eV     1   --> G_2            
     e(120 -120) =      6.58954  eV     1   --> G_2            
     e(121 -121) =      6.62254  eV     1   --> G_2            
     e(122 -122) =      6.63755  eV     1   --> G_2            
     e(123 -123) =      6.83511  eV     1   --> G_2            
     e(124 -124) =      6.83778  eV     1   --> G_2            
     e(125 -125) =      6.96308  eV     1   --> G_2            
     e(126 -126) =      6.96970  eV     1   --> G_2            
     e(127 -127) =      7.05124  eV     1   --> G_2            
     e(128 -128) =      7.06374  eV     1   --> G_2            
     e(129 -129) =      7.09409  eV     1   --> G_2            
     e(130 -130) =      7.10099  eV     1   --> G_2            
     e(131 -131) =      7.22930  eV     1   --> G_2            
     e(132 -132) =      7.23421  eV     1   --> G_2            
     e(133 -133) =      7.50573  eV     1   --> G_2            
     e(134 -134) =      7.51299  eV     1   --> G_2            
     e(135 -135) =      7.54070  eV     1   --> G_2            
     e(136 -136) =      7.54545  eV     1   --> G_2            
     e(137 -137) =      7.67777  eV     1   --> G_2            
     e(138 -138) =      7.68626  eV     1   --> G_2            
     e(139 -139) =      7.88056  eV     1   --> G_2            
     e(140 -140) =      7.89003  eV     1   --> G_2            
     e(141 -141) =      7.99048  eV     1   --> G_2            
     e(142 -142) =      7.99559  eV     1   --> G_2            
     e(143 -143) =      8.04711  eV     1   --> G_2            
     e(144 -144) =      8.05637  eV     1   --> G_2            
     e(145 -145) =      8.17932  eV     1   --> G_2            
     e(146 -146) =      8.18018  eV     1   --> G_2            
     e(147 -147) =      8.66695  eV     1   --> G_2            
     e(148 -148) =      8.67157  eV     1   --> G_2            
     e(149 -149) =      8.68003  eV     1   --> G_2            
     e(150 -150) =      8.68315  eV     1   --> G_2            
     e(151 -151) =      8.84964  eV     1   --> G_2            
     e(152 -152) =      8.85267  eV     1   --> G_2            
     e(153 -153) =      8.98129  eV     1   --> G_2            
     e(154 -154) =      8.98819  eV     1   --> G_2            
     e(155 -155) =      9.09211  eV     1   --> G_2            
     e(156 -156) =      9.09768  eV     1   --> G_2            
     e(157 -157) =      9.30101  eV     1   --> G_2            
     e(158 -158) =      9.31428  eV     1   --> G_2            
     e(159 -159) =      9.46917  eV     1   --> G_2            
     e(160 -160) =      9.47651  eV     1   --> G_2            
     e(161 -161) =      9.52657  eV     1   --> G_2            
     e(162 -162) =      9.52989  eV     1   --> G_2            
     e(163 -163) =      9.56744  eV     1   --> G_2            
     e(164 -164) =      9.58038  eV     1   --> G_2            
     e(165 -165) =      9.74359  eV     1   --> G_2            
     e(166 -166) =      9.74846  eV     1   --> G_2            
     e(167 -167) =      9.87348  eV     1   --> G_2            
     e(168 -168) =      9.87938  eV     1   --> G_2            
     e(169 -169) =     10.01478  eV     1   --> G_2            
     e(170 -170) =     10.01800  eV     1   --> G_2            
     e(171 -171) =     10.40094  eV     1   --> G_2            
     e(172 -172) =     10.40617  eV     1   --> G_2            
     e(173 -173) =     11.51998  eV     1   --> G_2            
     e(174 -174) =     11.52156  eV     1   --> G_2            
     e(175 -175) =     11.74828  eV     1   --> G_2            
     e(176 -176) =     11.74868  eV     1   --> G_2            
     e(177 -177) =     11.86514  eV     1   --> G_2            
     e(178 -178) =     11.86912  eV     1   --> G_2            
     e(179 -179) =     12.59654  eV     1   --> G_2            
     e(180 -180) =     12.60245  eV     1   --> G_2            
     e(181 -181) =     12.77014  eV     1   --> G_2            
     e(182 -182) =     12.77177  eV     1   --> G_2            
     e(183 -183) =     12.89691  eV     1   --> G_2            
     e(184 -184) =     12.90052  eV     1   --> G_2            
     e(185 -185) =     13.09052  eV     1   --> G_2            
     e(186 -186) =     13.10487  eV     1   --> G_2            
     e(187 -187) =     13.33845  eV     1   --> G_2            
     e(188 -188) =     13.34798  eV     1   --> G_2            
     e(189 -189) =     13.40776  eV     1   --> G_2            
     e(190 -190) =     13.40941  eV     1   --> G_2            
     e(191 -191) =     13.45467  eV     1   --> G_2            
     e(192 -192) =     13.46401  eV     1   --> G_2            
     e(193 -193) =     13.49713  eV     1   --> G_2            
     e(194 -194) =     13.50853  eV     1   --> G_2            
     e(195 -195) =     13.57871  eV     1   --> G_2            
     e(196 -196) =     13.61949  eV     1   --> G_2            
     e(197 -197) =     13.74491  eV     1   --> G_2            
     e(198 -198) =     13.77536  eV     1   --> G_2            
     e(199 -199) =     13.87098  eV     1   --> G_2            
     e(200 -200) =     13.89618  eV     1   --> G_2            

 **************************************************************************

 **************************************************************************

                    xk=(   0.37934,   0.21901,   0.01004  )

     Band symmetry, C_2  (2)    [C_1 (1)    ] magnetic double point group,
     using C_1 (1)    

     e(  1 -  1) =    -73.99387  eV     1   --> G_2            
     e(  2 -  2) =    -73.98844  eV     1   --> G_2            
     e(  3 -  3) =    -69.42235  eV     1   --> G_2            
     e(  4 -  4) =    -69.41697  eV     1   --> G_2            
     e(  5 -  5) =    -43.24725  eV     1   --> G_2            
     e(  6 -  6) =    -43.24213  eV     1   --> G_2            
     e(  7 -  7) =    -42.83277  eV     1   --> G_2            
     e(  8 -  8) =    -42.82720  eV     1   --> G_2            
     e(  9 -  9) =    -42.33190  eV     1   --> G_2            
     e( 10 - 10) =    -42.32651  eV     1   --> G_2            
     e( 11 - 11) =    -38.60157  eV     1   --> G_2            
     e( 12 - 12) =    -38.59668  eV     1   --> G_2            
     e( 13 - 13) =    -38.18036  eV     1   --> G_2            
     e( 14 - 14) =    -38.17478  eV     1   --> G_2            
     e( 15 - 15) =    -37.85348  eV     1   --> G_2            
     e( 16 - 16) =    -37.84827  eV     1   --> G_2            
     e( 17 - 18) =    -16.98687  eV     2   -->   2 G_2            
     e( 19 - 20) =    -16.98146  eV     2   -->   2 G_2            
     e( 21 - 21) =    -16.97881  eV     1   --> G_2            
     e( 22 - 22) =    -16.97870  eV     1   --> G_2            
     e( 23 - 23) =    -16.97406  eV     1   --> G_2            
     e( 24 - 24) =    -16.97395  eV     1   --> G_2            
     e( 25 - 26) =    -16.96179  eV     2   -->   2 G_2            
     e( 27 - 28) =    -16.96050  eV     2   -->   2 G_2            
     e( 29 - 29) =    -16.95910  eV     1   --> G_2            
     e( 30 - 30) =    -16.95898  eV     1   --> G_2            
     e( 31 - 31) =    -16.95844  eV     1   --> G_2            
     e( 32 - 32) =    -16.95832  eV     1   --> G_2            
     e( 33 - 34) =    -14.00291  eV     2   -->   2 G_2            
     e( 35 - 36) =    -14.00086  eV     2   -->   2 G_2            
     e( 37 - 37) =    -13.99922  eV     1   --> G_2            
     e( 38 - 38) =    -13.99912  eV     1   --> G_2            
     e( 39 - 39) =    -13.99768  eV     1   --> G_2            
     e( 40 - 40) =    -13.99756  eV     1   --> G_2            
     e( 41 - 42) =    -13.99527  eV     2   -->   2 G_2            
     e( 43 - 44) =    -13.99148  eV     2   -->   2 G_2            
     e( 45 - 46) =    -13.98308  eV     2   -->   2 G_2            
     e( 47 - 48) =    -13.98182  eV     2   -->   2 G_2            
     e( 49 - 50) =    -13.97609  eV     2   -->   2 G_2            
     e( 51 - 51) =    -13.97534  eV     1   --> G_2            
     e( 52 - 52) =    -13.97520  eV     1   --> G_2            
     e( 53 - 54) =    -13.97445  eV     2   -->   2 G_2            
     e( 55 - 55) =    -13.96515  eV     1   --> G_2            
     e( 56 - 56) =    -13.96501  eV     1   --> G_2            
     e( 57 - 57) =     -5.50154  eV     1   --> G_2            
     e( 58 - 58) =     -5.49278  eV     1   --> G_2            
     e( 59 - 59) =     -5.47075  eV     1   --> G_2            
     e( 60 - 60) =     -5.46161  eV     1   --> G_2            
     e( 61 - 61) =     -5.28792  eV     1   --> G_2            
     e( 62 - 62) =     -5.27801  eV     1   --> G_2            
     e( 63 - 63) =     -5.23833  eV     1   --> G_2            
     e( 64 - 64) =     -5.22766  eV     1   --> G_2            
     e( 65 - 65) =     -3.85406  eV     1   --> G_2            
     e( 66 - 66) =     -3.85327  eV     1   --> G_2            
     e( 67 - 67) =     -3.64356  eV     1   --> G_2            
     e( 68 - 68) =     -3.64116  eV     1   --> G_2            
     e( 69 - 69) =     -3.38710  eV     1   --> G_2            
     e( 70 - 70) =     -3.38649  eV     1   --> G_2            
     e( 71 - 71) =     -3.12133  eV     1   --> G_2            
     e( 72 - 72) =     -3.12010  eV     1   --> G_2            
     e( 73 - 73) =     -1.50631  eV     1   --> G_2            
     e( 74 - 74) =     -1.50111  eV     1   --> G_2            
     e( 75 - 75) =     -1.18522  eV     1   --> G_2            
     e( 76 - 76) =     -1.17999  eV     1   --> G_2            
     e( 77 - 77) =     -0.85070  eV     1   --> G_2            
     e( 78 - 78) =     -0.84349  eV     1   --> G_2            
     e( 79 - 79) =     -0.58944  eV     1   --> G_2            
     e( 80 - 80) =     -0.58209  eV     1   --> G_2            
     e( 81 - 81) =      3.59437  eV     1   --> G_2            
     e( 82 - 82) =      3.59508  eV     1   --> G_2            
     e( 83 - 83) =      3.93965  eV     1   --> G_2            
     e( 84 - 84) =      3.94358  eV     1   --> G_2            
     e( 85 - 85) =      4.21718  eV     1   --> G_2            
     e( 86 - 86) =      4.22146  eV     1   --> G_2            
     e( 87 - 87) =      4.27285  eV     1   --> G_2            
     e( 88 - 88) =      4.27678  eV     1   --> G_2            
     e( 89 - 89) =      4.62417  eV     1   --> G_2            
     e( 90 - 90) =      4.64096  eV     1   --> G_2            
     e( 91 - 91) =      4.78710  eV     1   --> G_2            
     e( 92 - 92) =      4.79275  eV     1   --> G_2            
     e( 93 - 93) =      4.80490  eV     1   --> G_2            
     e( 94 - 94) =      4.80743  eV     1   --> G_2            
     e( 95 - 95) =      4.82831  eV     1   --> G_2            
     e( 96 - 96) =      4.83963  eV     1   --> G_2            
     e( 97 - 97) =      4.98601  eV     1   --> G_2            
     e( 98 - 98) =      4.98920  eV     1   --> G_2            
     e( 99 - 99) =      5.20329  eV     1   --> G_2            
     e(100 -100) =      5.21361  eV     1   --> G_2            
     e(101 -101) =      5.36506  eV     1   --> G_2            
     e(102 -102) =      5.37229  eV     1   --> G_2            
     e(103 -103) =      5.57067  eV     1   --> G_2            
     e(104 -104) =      5.57440  eV     1   --> G_2            
     e(105 -105) =      5.70669  eV     1   --> G_2            
     e(106 -106) =      5.72045  eV     1   --> G_2            
     e(107 -107) =      5.87094  eV     1   --> G_2            
     e(108 -108) =      5.88094  eV     1   --> G_2            
     e(109 -109) =      5.95580  eV     1   --> G_2            
     e(110 -110) =      5.96849  eV     1   --> G_2            
     e(111 -111) =      6.03530  eV     1   --> G_2            
     e(112 -112) =      6.05019  eV     1   --> G_2            
     e(113 -113) =      6.14312  eV     1   --> G_2            
     e(114 -114) =      6.14744  eV     1   --> G_2            
     e(115 -115) =      6.27882  eV     1   --> G_2            
     e(116 -116) =      6.28294  eV     1   --> G_2            
     e(117 -117) =      6.35747  eV     1   --> G_2            
     e(118 -118) =      6.37079  eV     1   --> G_2            
     e(119 -119) =      6.51376  eV     1   --> G_2            
     e(120 -120) =      6.53943  eV     1   --> G_2            
     e(121 -121) =      6.58172  eV     1   --> G_2            
     e(122 -122) =      6.58599  eV     1   --> G_2            
     e(123 -123) =      6.87018  eV     1   --> G_2            
     e(124 -124) =      6.87624  eV     1   --> G_2            
     e(125 -125) =      6.95470  eV     1   --> G_2            
     e(126 -126) =      6.95778  eV     1   --> G_2            
     e(127 -127) =      7.00184  eV     1   --> G_2            
     e(128 -128) =      7.00527  eV     1   --> G_2            
     e(129 -129) =      7.10428  eV     1   --> G_2            
     e(130 -130) =      7.12073  eV     1   --> G_2            
     e(131 -131) =      7.17508  eV     1   --> G_2            
     e(132 -132) =      7.17978  eV     1   --> G_2            
     e(133 -133) =      7.45227  eV     1   --> G_2            
     e(134 -134) =      7.45767  eV     1   --> G_2            
     e(135 -135) =      7.48982  eV     1   --> G_2            
     e(136 -136) =      7.49317  eV     1   --> G_2            
     e(137 -137) =      7.66042  eV     1   --> G_2            
     e(138 -138) =      7.67082  eV     1   --> G_2            
     e(139 -139) =      7.93084  eV     1   --> G_2            
     e(140 -140) =      7.94841  eV     1   --> G_2            
     e(141 -141) =      8.04211  eV     1   --> G_2            
     e(142 -142) =      8.04854  eV     1   --> G_2            
     e(143 -143) =      8.11390  eV     1   --> G_2            
     e(144 -144) =      8.11827  eV     1   --> G_2            
     e(145 -145) =      8.24593  eV     1   --> G_2            
     e(146 -146) =      8.24834  eV     1   --> G_2            
     e(147 -147) =      8.67790  eV     1   --> G_2            
     e(148 -148) =      8.68249  eV     1   --> G_2            
     e(149 -149) =      8.70877  eV     1   --> G_2            
     e(150 -150) =      8.71249  eV     1   --> G_2            
     e(151 -151) =      8.88263  eV     1   --> G_2            
     e(152 -152) =      8.88563  eV     1   --> G_2            
     e(153 -153) =      9.05137  eV     1   --> G_2            
     e(154 -154) =      9.06023  eV     1   --> G_2            
     e(155 -155) =      9.08348  eV     1   --> G_2            
     e(156 -156) =      9.08927  eV     1   --> G_2            
     e(157 -157) =      9.33427  eV     1   --> G_2            
     e(158 -158) =      9.34692  eV     1   --> G_2            
     e(159 -159) =      9.49278  eV     1   --> G_2            
     e(160 -160) =      9.50282  eV     1   --> G_2            
     e(161 -161) =      9.60143  eV     1   --> G_2            
     e(162 -162) =      9.60271  eV     1   --> G_2            
     e(163 -163) =      9.62572  eV     1   --> G_2            
     e(164 -164) =      9.63624  eV     1   --> G_2            
     e(165 -165) =      9.72287  eV     1   --> G_2            
     e(166 -166) =      9.72977  eV     1   --> G_2            
     e(167 -167) =      9.90624  eV     1   --> G_2            
     e(168 -168) =      9.91096  eV     1   --> G_2            
     e(169 -169) =     10.09491  eV     1   --> G_2            
     e(170 -170) =     10.09840  eV     1   --> G_2            
     e(171 -171) =     10.36782  eV     1   --> G_2            
     e(172 -172) =     10.37211  eV     1   --> G_2            
     e(173 -173) =     11.58064  eV     1   --> G_2            
     e(174 -174) =     11.58253  eV     1   --> G_2            
     e(175 -175) =     11.75458  eV     1   --> G_2            
     e(176 -176) =     11.75498  eV     1   --> G_2            
     e(177 -177) =     11.92643  eV     1   --> G_2            
     e(178 -178) =     11.92930  eV     1   --> G_2            
     e(179 -179) =     12.63340  eV     1   --> G_2            
     e(180 -180) =     12.64004  eV     1   --> G_2            
     e(181 -181) =     12.74052  eV     1   --> G_2            
     e(182 -182) =     12.74481  eV     1   --> G_2            
     e(183 -183) =     12.92480  eV     1   --> G_2            
     e(184 -184) =     12.92951  eV     1   --> G_2            
     e(185 -185) =     13.02209  eV     1   --> G_2            
     e(186 -186) =     13.03348  eV     1   --> G_2            
     e(187 -187) =     13.26385  eV     1   --> G_2            
     e(188 -188) =     13.29510  eV     1   --> G_2            
     e(189 -189) =     13.40074  eV     1   --> G_2            
     e(190 -190) =     13.41380  eV     1   --> G_2            
     e(191 -191) =     13.44773  eV     1   --> G_2            
     e(192 -192) =     13.45385  eV     1   --> G_2            
     e(193 -193) =     13.48277  eV     1   --> G_2            
     e(194 -194) =     13.49337  eV     1   --> G_2            
     e(195 -195) =     13.52343  eV     1   --> G_2            
     e(196 -196) =     13.53889  eV     1   --> G_2            
     e(197 -197) =     13.76985  eV     1   --> G_2            
     e(198 -198) =     13.79875  eV     1   --> G_2            
     e(199 -199) =     13.85917  eV     1   --> G_2            
     e(200 -200) =     13.89026  eV     1   --> G_2            

 **************************************************************************

 **************************************************************************

                    xk=(   0.50579,   0.29202,   0.01339  )

     Band symmetry, C_2  (2)    [C_1 (1)    ] magnetic double point group,
     using C_1 (1)    

     e(  1 -  1) =    -73.99387  eV     1   --> G_2            
     e(  2 -  2) =    -73.98844  eV     1   --> G_2            
     e(  3 -  3) =    -69.42235  eV     1   --> G_2            
     e(  4 -  4) =    -69.41697  eV     1   --> G_2            
     e(  5 -  5) =    -43.24726  eV     1   --> G_2            
     e(  6 -  6) =    -43.24214  eV     1   --> G_2            
     e(  7 -  7) =    -42.83276  eV     1   --> G_2            
     e(  8 -  8) =    -42.82720  eV     1   --> G_2            
     e(  9 -  9) =    -42.33191  eV     1   --> G_2            
     e( 10 - 10) =    -42.32652  eV     1   --> G_2            
     e( 11 - 11) =    -38.60158  eV     1   --> G_2            
     e( 12 - 12) =    -38.59670  eV     1   --> G_2            
     e( 13 - 13) =    -38.18036  eV     1   --> G_2            
     e( 14 - 14) =    -38.17477  eV     1   --> G_2            
     e( 15 - 15) =    -37.85350  eV     1   --> G_2            
     e( 16 - 16) =    -37.84829  eV     1   --> G_2            
     e( 17 - 18) =    -16.98680  eV     2   -->   2 G_2            
     e( 19 - 20) =    -16.98140  eV     2   -->   2 G_2            
     e( 21 - 22) =    -16.97883  eV     2   -->   2 G_2            
     e( 23 - 24) =    -16.97407  eV     2   -->   2 G_2            
     e( 25 - 26) =    -16.96173  eV     2   -->   2 G_2            
     e( 27 - 28) =    -16.96043  eV     2   -->   2 G_2            
     e( 29 - 30) =    -16.95910  eV     2   -->   2 G_2            
     e( 31 - 32) =    -16.95844  eV     2   -->   2 G_2            
     e( 33 - 34) =    -14.00275  eV     2   -->   2 G_2            
     e( 35 - 36) =    -14.00074  eV     2   -->   2 G_2            
     e( 37 - 37) =    -13.99915  eV     1   --> G_2            
     e( 38 - 38) =    -13.99905  eV     1   --> G_2            
     e( 39 - 39) =    -13.99762  eV     1   --> G_2            
     e( 40 - 40) =    -13.99751  eV     1   --> G_2            
     e( 41 - 42) =    -13.99543  eV     2   -->   2 G_2            
     e( 43 - 44) =    -13.99165  eV     2   -->   2 G_2            
     e( 45 - 46) =    -13.98287  eV     2   -->   2 G_2            
     e( 47 - 48) =    -13.98201  eV     2   -->   2 G_2            
     e( 49 - 50) =    -13.97594  eV     2   -->   2 G_2            
     e( 51 - 51) =    -13.97519  eV     1   --> G_2            
     e( 52 - 52) =    -13.97506  eV     1   --> G_2            
     e( 53 - 54) =    -13.97463  eV     2   -->   2 G_2            
     e( 55 - 55) =    -13.96503  eV     1   --> G_2            
     e( 56 - 56) =    -13.96491  eV     1   --> G_2            
     e( 57 - 57) =     -5.47698  eV     1   --> G_2            
     e( 58 - 58) =     -5.46820  eV     1   --> G_2            
     e( 59 - 59) =     -5.44633  eV     1   --> G_2            
     e( 60 - 60) =     -5.43718  eV     1   --> G_2            
     e( 61 - 61) =     -5.26388  eV     1   --> G_2            
     e( 62 - 62) =     -5.25396  eV     1   --> G_2            
     e( 63 - 63) =     -5.21453  eV     1   --> G_2            
     e( 64 - 64) =     -5.20385  eV     1   --> G_2            
     e( 65 - 65) =     -3.83620  eV     1   --> G_2            
     e( 66 - 66) =     -3.83541  eV     1   --> G_2            
     e( 67 - 67) =     -3.62709  eV     1   --> G_2            
     e( 68 - 68) =     -3.62470  eV     1   --> G_2            
     e( 69 - 69) =     -3.37358  eV     1   --> G_2            
     e( 70 - 70) =     -3.37296  eV     1   --> G_2            
     e( 71 - 71) =     -3.11034  eV     1   --> G_2            
     e( 72 - 72) =     -3.10910  eV     1   --> G_2            
     e( 73 - 73) =     -1.51231  eV     1   --> G_2            
     e( 74 - 74) =     -1.50692  eV     1   --> G_2            
     e( 75 - 75) =     -1.20057  eV     1   --> G_2            
     e( 76 - 76) =     -1.19516  eV     1   --> G_2            
     e( 77 - 77) =     -0.87216  eV     1   --> G_2            
     e( 78 - 78) =     -0.86484  eV     1   --> G_2            
     e( 79 - 79) =     -0.62194  eV     1   --> G_2            
     e( 80 - 80) =     -0.61450  eV     1   --> G_2            
     e( 81 - 81) =      3.58970  eV     1   --> G_2            
     e( 82 - 82) =      3.59042  eV     1   --> G_2            
     e( 83 - 83) =      3.92473  eV     1   --> G_2            
     e( 84 - 84) =      3.92882  eV     1   --> G_2            
     e( 85 - 85) =      4.18075  eV     1   --> G_2            
     e( 86 - 86) =      4.18482  eV     1   --> G_2            
     e( 87 - 87) =      4.27094  eV     1   --> G_2            
     e( 88 - 88) =      4.27512  eV     1   --> G_2            
     e( 89 - 89) =      4.59102  eV     1   --> G_2            
     e( 90 - 90) =      4.60537  eV     1   --> G_2            
     e( 91 - 91) =      4.69351  eV     1   --> G_2            
     e( 92 - 92) =      4.70620  eV     1   --> G_2            
     e( 93 - 93) =      4.79296  eV     1   --> G_2            
     e( 94 - 94) =      4.79763  eV     1   --> G_2            
     e( 95 - 95) =      4.80170  eV     1   --> G_2            
     e( 96 - 96) =      4.80678  eV     1   --> G_2            
     e( 97 - 97) =      4.92318  eV     1   --> G_2            
     e( 98 - 98) =      4.92699  eV     1   --> G_2            
     e( 99 - 99) =      5.13602  eV     1   --> G_2            
     e(100 -100) =      5.14276  eV     1   --> G_2            
     e(101 -101) =      5.26989  eV     1   --> G_2            
     e(102 -102) =      5.27660  eV     1   --> G_2            
     e(103 -103) =      5.51324  eV     1   --> G_2            
     e(104 -104) =      5.51884  eV     1   --> G_2            
     e(105 -105) =      5.66230  eV     1   --> G_2            
     e(106 -106) =      5.67213  eV     1   --> G_2            
     e(107 -107) =      5.78663  eV     1   --> G_2            
     e(108 -108) =      5.80353  eV     1   --> G_2            
     e(109 -109) =      5.87047  eV     1   --> G_2            
     e(110 -110) =      5.88197  eV     1   --> G_2            
     e(111 -111) =      5.96088  eV     1   --> G_2            
     e(112 -112) =      5.97681  eV     1   --> G_2            
     e(113 -113) =      6.13048  eV     1   --> G_2            
     e(114 -114) =      6.13372  eV     1   --> G_2            
     e(115 -115) =      6.19396  eV     1   --> G_2            
     e(116 -116) =      6.20652  eV     1   --> G_2            
     e(117 -117) =      6.31310  eV     1   --> G_2            
     e(118 -118) =      6.32153  eV     1   --> G_2            
     e(119 -119) =      6.47969  eV     1   --> G_2            
     e(120 -120) =      6.48184  eV     1   --> G_2            
     e(121 -121) =      6.51545  eV     1   --> G_2            
     e(122 -122) =      6.53345  eV     1   --> G_2            
     e(123 -123) =      6.85470  eV     1   --> G_2            
     e(124 -124) =      6.86444  eV     1   --> G_2            
     e(125 -125) =      6.93689  eV     1   --> G_2            
     e(126 -126) =      6.94215  eV     1   --> G_2            
     e(127 -127) =      7.00431  eV     1   --> G_2            
     e(128 -128) =      7.01166  eV     1   --> G_2            
     e(129 -129) =      7.04266  eV     1   --> G_2            
     e(130 -130) =      7.04944  eV     1   --> G_2            
     e(131 -131) =      7.15447  eV     1   --> G_2            
     e(132 -132) =      7.16709  eV     1   --> G_2            
     e(133 -133) =      7.40183  eV     1   --> G_2            
     e(134 -134) =      7.41213  eV     1   --> G_2            
     e(135 -135) =      7.48021  eV     1   --> G_2            
     e(136 -136) =      7.48758  eV     1   --> G_2            
     e(137 -137) =      7.61558  eV     1   --> G_2            
     e(138 -138) =      7.62771  eV     1   --> G_2            
     e(139 -139) =      7.95057  eV     1   --> G_2            
     e(140 -140) =      7.97538  eV     1   --> G_2            
     e(141 -141) =      8.05825  eV     1   --> G_2            
     e(142 -142) =      8.07442  eV     1   --> G_2            
     e(143 -143) =      8.22428  eV     1   --> G_2            
     e(144 -144) =      8.22702  eV     1   --> G_2            
     e(145 -145) =      8.34390  eV     1   --> G_2            
     e(146 -146) =      8.34596  eV     1   --> G_2            
     e(147 -147) =      8.68279  eV     1   --> G_2            
     e(148 -148) =      8.68743  eV     1   --> G_2            
     e(149 -149) =      8.74249  eV     1   --> G_2            
     e(150 -150) =      8.74659  eV     1   --> G_2            
     e(151 -151) =      8.92503  eV     1   --> G_2            
     e(152 -152) =      8.92824  eV     1   --> G_2            
     e(153 -153) =      9.07130  eV     1   --> G_2            
     e(154 -154) =      9.07938  eV     1   --> G_2            
     e(155 -155) =      9.13192  eV     1   --> G_2            
     e(156 -156) =      9.14057  eV     1   --> G_2            
     e(157 -157) =      9.40210  eV     1   --> G_2            
     e(158 -158) =      9.41299  eV     1   --> G_2            
     e(159 -159) =      9.49805  eV     1   --> G_2            
     e(160 -160) =      9.50239  eV     1   --> G_2            
     e(161 -161) =      9.65385  eV     1   --> G_2            
     e(162 -162) =      9.66135  eV     1   --> G_2            
     e(163 -163) =      9.68392  eV     1   --> G_2            
     e(164 -164) =      9.69374  eV     1   --> G_2            
     e(165 -165) =      9.79074  eV     1   --> G_2            
     e(166 -166) =      9.79500  eV     1   --> G_2            
     e(167 -167) =      9.94831  eV     1   --> G_2            
     e(168 -168) =      9.95274  eV     1   --> G_2            
     e(169 -169) =     10.18844  eV     1   --> G_2            
     e(170 -170) =     10.19194  eV     1   --> G_2            
     e(171 -171) =     10.34375  eV     1   --> G_2            
     e(172 -172) =     10.34728  eV     1   --> G_2            
     e(173 -173) =     11.64574  eV     1   --> G_2            
     e(174 -174) =     11.64906  eV     1   --> G_2            
     e(175 -175) =     11.75733  eV     1   --> G_2            
     e(176 -176) =     11.75862  eV     1   --> G_2            
     e(177 -177) =     11.98587  eV     1   --> G_2            
     e(178 -178) =     11.98759  eV     1   --> G_2            
     e(179 -179) =     12.65465  eV     1   --> G_2            
     e(180 -180) =     12.65542  eV     1   --> G_2            
     e(181 -181) =     12.70372  eV     1   --> G_2            
     e(182 -182) =     12.71441  eV     1   --> G_2            
     e(183 -183) =     12.97450  eV     1   --> G_2            
     e(184 -184) =     12.97480  eV     1   --> G_2            
     e(185 -185) =     13.01691  eV     1   --> G_2            
     e(186 -186) =     13.02746  eV     1   --> G_2            
     e(187 -187) =     13.18242  eV     1   --> G_2            
     e(188 -188) =     13.20845  eV     1   --> G_2            
     e(189 -189) =     13.30741  eV     1   --> G_2            
     e(190 -190) =     13.31562  eV     1   --> G_2            
     e(191 -191) =     13.38565  eV     1   --> G_2            
     e(192 -192) =     13.39012  eV     1   --> G_2            
     e(193 -193) =     13.48651  eV     1   --> G_2            
     e(194 -194) =     13.49473  eV     1   --> G_2            
     e(195 -195) =     13.53276  eV     1   --> G_2            
     e(196 -196) =     13.53827  eV     1   --> G_2            
     e(197 -197) =     13.80885  eV     1   --> G_2            
     e(198 -198) =     13.82772  eV     1   --> G_2            
     e(199 -199) =     13.85430  eV     1   --> G_2            
     e(200 -200) =     13.88553  eV     1   --> G_2            

 **************************************************************************

 **************************************************************************

                    xk=(   0.63223,   0.36502,   0.01674  )

     Band symmetry, C_2  (2)    [C_1 (1)    ] magnetic double point group,
     using C_1 (1)    

     e(  1 -  1) =    -73.99387  eV     1   --> G_2            
     e(  2 -  2) =    -73.98843  eV     1   --> G_2            
     e(  3 -  3) =    -69.42234  eV     1   --> G_2            
     e(  4 -  4) =    -69.41696  eV     1   --> G_2            
     e(  5 -  5) =    -43.24727  eV     1   --> G_2            
     e(  6 -  6) =    -43.24215  eV     1   --> G_2            
     e(  7 -  7) =    -42.83276  eV     1   --> G_2            
     e(  8 -  8) =    -42.82719  eV     1   --> G_2            
     e(  9 -  9) =    -42.33192  eV     1   --> G_2            
     e( 10 - 10) =    -42.32653  eV     1   --> G_2            
     e( 11 - 11) =    -38.60160  eV     1   --> G_2            
     e( 12 - 12) =    -38.59671  eV     1   --> G_2            
     e( 13 - 13) =    -38.18035  eV     1   --> G_2            
     e( 14 - 14) =    -38.17477  eV     1   --> G_2            
     e( 15 - 15) =    -37.85352  eV     1   --> G_2            
     e( 16 - 16) =    -37.84831  eV     1   --> G_2            
     e( 17 - 18) =    -16.98665  eV     2   -->   2 G_2            
     e( 19 - 20) =    -16.98124  eV     2   -->   2 G_2            
     e( 21 - 22) =    -16.97882  eV     2   -->   2 G_2            
     e( 23 - 23) =    -16.97406  eV     1   --> G_2            
     e( 24 - 24) =    -16.97396  eV     1   --> G_2            
     e( 25 - 26) =    -16.96158  eV     2   -->   2 G_2            
     e( 27 - 28) =    -16.96028  eV     2   -->   2 G_2            
     e( 29 - 29) =    -16.95908  eV     1   --> G_2            
     e( 30 - 30) =    -16.95897  eV     1   --> G_2            
     e( 31 - 31) =    -16.95842  eV     1   --> G_2            
     e( 32 - 32) =    -16.95832  eV     1   --> G_2            
     e( 33 - 34) =    -14.00250  eV     2   -->   2 G_2            
     e( 35 - 36) =    -14.00054  eV     2   -->   2 G_2            
     e( 37 - 37) =    -13.99901  eV     1   --> G_2            
     e( 38 - 38) =    -13.99891  eV     1   --> G_2            
     e( 39 - 39) =    -13.99751  eV     1   --> G_2            
     e( 40 - 40) =    -13.99741  eV     1   --> G_2            
     e( 41 - 42) =    -13.99555  eV     2   -->   2 G_2            
     e( 43 - 44) =    -13.99180  eV     2   -->   2 G_2            
     e( 45 - 46) =    -13.98253  eV     2   -->   2 G_2            
     e( 47 - 48) =    -13.98218  eV     2   -->   2 G_2            
     e( 49 - 50) =    -13.97576  eV     2   -->   2 G_2            
     e( 51 - 51) =    -13.97492  eV     1   --> G_2            
     e( 52 - 54) =    -13.97480  eV     3   -->   3 G_2            
     e( 55 - 55) =    -13.96486  eV     1   --> G_2            
     e( 56 - 56) =    -13.96473  eV     1   --> G_2            
     e( 57 - 57) =     -5.44547  eV     1   --> G_2            
     e( 58 - 58) =     -5.43669  eV     1   --> G_2            
     e( 59 - 59) =     -5.41501  eV     1   --> G_2            
     e( 60 - 60) =     -5.40585  eV     1   --> G_2            
     e( 61 - 61) =     -5.23308  eV     1   --> G_2            
     e( 62 - 62) =     -5.22314  eV     1   --> G_2            
     e( 63 - 63) =     -5.18404  eV     1   --> G_2            
     e( 64 - 64) =     -5.17335  eV     1   --> G_2            
     e( 65 - 65) =     -3.81349  eV     1   --> G_2            
     e( 66 - 66) =     -3.81269  eV     1   --> G_2            
     e( 67 - 67) =     -3.60618  eV     1   --> G_2            
     e( 68 - 68) =     -3.60379  eV     1   --> G_2            
     e( 69 - 69) =     -3.35654  eV     1   --> G_2            
     e( 70 - 70) =     -3.35587  eV     1   --> G_2            
     e( 71 - 71) =     -3.09652  eV     1   --> G_2            
     e( 72 - 72) =     -3.09527  eV     1   --> G_2            
     e( 73 - 73) =     -1.52082  eV     1   --> G_2            
     e( 74 - 74) =     -1.51513  eV     1   --> G_2            
     e( 75 - 75) =     -1.22080  eV     1   --> G_2            
     e( 76 - 76) =     -1.21513  eV     1   --> G_2            
     e( 77 - 77) =     -0.90039  eV     1   --> G_2            
     e( 78 - 78) =     -0.89292  eV     1   --> G_2            
     e( 79 - 79) =     -0.66366  eV     1   --> G_2            
     e( 80 - 80) =     -0.65612  eV     1   --> G_2            
     e( 81 - 81) =      3.58004  eV     1   --> G_2            
     e( 82 - 82) =      3.58087  eV     1   --> G_2            
     e( 83 - 83) =      3.90568  eV     1   --> G_2            
     e( 84 - 84) =      3.91001  eV     1   --> G_2            
     e( 85 - 85) =      4.13634  eV     1   --> G_2            
     e( 86 - 86) =      4.14010  eV     1   --> G_2            
     e( 87 - 87) =      4.26969  eV     1   --> G_2            
     e( 88 - 88) =      4.27398  eV     1   --> G_2            
     e( 89 - 89) =      4.51579  eV     1   --> G_2            
     e( 90 - 90) =      4.52687  eV     1   --> G_2            
     e( 91 - 91) =      4.58483  eV     1   --> G_2            
     e( 92 - 92) =      4.59796  eV     1   --> G_2            
     e( 93 - 93) =      4.77084  eV     1   --> G_2            
     e( 94 - 94) =      4.77697  eV     1   --> G_2            
     e( 95 - 95) =      4.78620  eV     1   --> G_2            
     e( 96 - 96) =      4.79069  eV     1   --> G_2            
     e( 97 - 97) =      4.86241  eV     1   --> G_2            
     e( 98 - 98) =      4.86698  eV     1   --> G_2            
     e( 99 - 99) =      5.07590  eV     1   --> G_2            
     e(100 -100) =      5.07880  eV     1   --> G_2            
     e(101 -101) =      5.17291  eV     1   --> G_2            
     e(102 -102) =      5.17779  eV     1   --> G_2            
     e(103 -103) =      5.43706  eV     1   --> G_2            
     e(104 -104) =      5.44463  eV     1   --> G_2            
     e(105 -105) =      5.57937  eV     1   --> G_2            
     e(106 -106) =      5.58876  eV     1   --> G_2            
     e(107 -107) =      5.69177  eV     1   --> G_2            
     e(108 -108) =      5.71253  eV     1   --> G_2            
     e(109 -109) =      5.78529  eV     1   --> G_2            
     e(110 -110) =      5.79753  eV     1   --> G_2            
     e(111 -111) =      5.87088  eV     1   --> G_2            
     e(112 -112) =      5.88452  eV     1   --> G_2            
     e(113 -113) =      6.07042  eV     1   --> G_2            
     e(114 -114) =      6.07926  eV     1   --> G_2            
     e(115 -115) =      6.12718  eV     1   --> G_2            
     e(116 -116) =      6.13439  eV     1   --> G_2            
     e(117 -117) =      6.28227  eV     1   --> G_2            
     e(118 -118) =      6.28764  eV     1   --> G_2            
     e(119 -119) =      6.42304  eV     1   --> G_2            
     e(120 -120) =      6.44148  eV     1   --> G_2            
     e(121 -121) =      6.45657  eV     1   --> G_2            
     e(122 -122) =      6.49077  eV     1   --> G_2            
     e(123 -123) =      6.74805  eV     1   --> G_2            
     e(124 -124) =      6.76247  eV     1   --> G_2            
     e(125 -125) =      6.91395  eV     1   --> G_2            
     e(126 -126) =      6.92107  eV     1   --> G_2            
     e(127 -127) =      6.96617  eV     1   --> G_2            
     e(128 -128) =      6.97259  eV     1   --> G_2            
     e(129 -129) =      7.06285  eV     1   --> G_2            
     e(130 -130) =      7.07488  eV     1   --> G_2            
     e(131 -131) =      7.09921  eV     1   --> G_2            
     e(132 -132) =      7.11102  eV     1   --> G_2            
     e(133 -133) =      7.36642  eV     1   --> G_2            
     e(134 -134) =      7.38080  eV     1   --> G_2            
     e(135 -135) =      7.49709  eV     1   --> G_2            
     e(136 -136) =      7.50245  eV     1   --> G_2            
     e(137 -137) =      7.56827  eV     1   --> G_2            
     e(138 -138) =      7.58215  eV     1   --> G_2            
     e(139 -139) =      7.96318  eV     1   --> G_2            
     e(140 -140) =      7.98927  eV     1   --> G_2            
     e(141 -141) =      8.07041  eV     1   --> G_2            
     e(142 -142) =      8.09089  eV     1   --> G_2            
     e(143 -143) =      8.33387  eV     1   --> G_2            
     e(144 -144) =      8.33714  eV     1   --> G_2            
     e(145 -145) =      8.46384  eV     1   --> G_2            
     e(146 -146) =      8.46473  eV     1   --> G_2            
     e(147 -147) =      8.68188  eV     1   --> G_2            
     e(148 -148) =      8.68649  eV     1   --> G_2            
     e(149 -149) =      8.77801  eV     1   --> G_2            
     e(150 -150) =      8.78227  eV     1   --> G_2            
     e(151 -151) =      8.97138  eV     1   --> G_2            
     e(152 -152) =      8.97507  eV     1   --> G_2            
     e(153 -153) =      9.06104  eV     1   --> G_2            
     e(154 -154) =      9.07028  eV     1   --> G_2            
     e(155 -155) =      9.19372  eV     1   --> G_2            
     e(156 -156) =      9.19904  eV     1   --> G_2            
     e(157 -157) =      9.47808  eV     1   --> G_2            
     e(158 -158) =      9.48665  eV     1   --> G_2            
     e(159 -159) =      9.51270  eV     1   --> G_2            
     e(160 -160) =      9.52354  eV     1   --> G_2            
     e(161 -161) =      9.70237  eV     1   --> G_2            
     e(162 -162) =      9.71038  eV     1   --> G_2            
     e(163 -163) =      9.76626  eV     1   --> G_2            
     e(164 -164) =      9.77355  eV     1   --> G_2            
     e(165 -165) =      9.88071  eV     1   --> G_2            
     e(166 -166) =      9.88322  eV     1   --> G_2            
     e(167 -167) =     10.00368  eV     1   --> G_2            
     e(168 -168) =     10.00877  eV     1   --> G_2            
     e(169 -169) =     10.29423  eV     1   --> G_2            
     e(170 -170) =     10.29719  eV     1   --> G_2            
     e(171 -171) =     10.34784  eV     1   --> G_2            
     e(172 -172) =     10.34904  eV     1   --> G_2            
     e(173 -173) =     11.67028  eV     1   --> G_2            
     e(174 -174) =     11.67436  eV     1   --> G_2            
     e(175 -175) =     11.78342  eV     1   --> G_2            
     e(176 -176) =     11.78585  eV     1   --> G_2            
     e(177 -177) =     12.04280  eV     1   --> G_2            
     e(178 -178) =     12.04423  eV     1   --> G_2            
     e(179 -179) =     12.58968  eV     1   --> G_2            
     e(180 -180) =     12.59469  eV     1   --> G_2            
     e(181 -181) =     12.74458  eV     1   --> G_2            
     e(182 -182) =     12.76115  eV     1   --> G_2            
     e(183 -183) =     12.95257  eV     1   --> G_2            
     e(184 -184) =     12.97469  eV     1   --> G_2            
     e(185 -185) =     13.06086  eV     1   --> G_2            
     e(186 -186) =     13.06794  eV     1   --> G_2            
     e(187 -187) =     13.11167  eV     1   --> G_2            
     e(188 -188) =     13.11955  eV     1   --> G_2            
     e(189 -189) =     13.23095  eV     1   --> G_2            
     e(190 -190) =     13.23463  eV     1   --> G_2            
     e(191 -191) =     13.32650  eV     1   --> G_2            
     e(192 -192) =     13.34143  eV     1   --> G_2            
     e(193 -193) =     13.44417  eV     1   --> G_2            
     e(194 -194) =     13.45502  eV     1   --> G_2            
[...]
     e(140 -140) =      7.84150  eV     1   --> G_2            
     e(141 -141) =      7.89002  eV     1   --> G_2            
     e(142 -142) =      7.89313  eV     1   --> G_2            
     e(143 -143) =      8.02482  eV     1   --> G_2            
     e(144 -144) =      8.03341  eV     1   --> G_2            
     e(145 -145) =      8.14251  eV     1   --> G_2            
     e(146 -146) =      8.14381  eV     1   --> G_2            
     e(147 -147) =      8.65413  eV     1   --> G_2            
     e(148 -148) =      8.65776  eV     1   --> G_2            
     e(149 -149) =      8.65895  eV     1   --> G_2            
     e(150 -150) =      8.66021  eV     1   --> G_2            
     e(151 -151) =      8.82731  eV     1   --> G_2            
     e(152 -152) =      8.83052  eV     1   --> G_2            
     e(153 -153) =      8.93347  eV     1   --> G_2            
     e(154 -154) =      8.93903  eV     1   --> G_2            
     e(155 -155) =      9.10323  eV     1   --> G_2            
     e(156 -156) =      9.11148  eV     1   --> G_2            
     e(157 -157) =      9.29903  eV     1   --> G_2            
     e(158 -158) =      9.31047  eV     1   --> G_2            
     e(159 -159) =      9.39829  eV     1   --> G_2            
     e(160 -160) =      9.40513  eV     1   --> G_2            
     e(161 -161) =      9.45328  eV     1   --> G_2            
     e(162 -162) =      9.47252  eV     1   --> G_2            
     e(163 -163) =      9.55960  eV     1   --> G_2            
     e(164 -164) =      9.57085  eV     1   --> G_2            
     e(165 -165) =      9.80495  eV     1   --> G_2            
     e(166 -166) =      9.80890  eV     1   --> G_2            
     e(167 -167) =      9.84614  eV     1   --> G_2            
     e(168 -168) =      9.85439  eV     1   --> G_2            
     e(169 -169) =      9.93706  eV     1   --> G_2            
     e(170 -170) =      9.93906  eV     1   --> G_2            
     e(171 -171) =     10.43064  eV     1   --> G_2            
     e(172 -172) =     10.43677  eV     1   --> G_2            
     e(173 -173) =     11.47547  eV     1   --> G_2            
     e(174 -174) =     11.47719  eV     1   --> G_2            
     e(175 -175) =     11.74938  eV     1   --> G_2            
     e(176 -176) =     11.75063  eV     1   --> G_2            
     e(177 -177) =     11.80328  eV     1   --> G_2            
     e(178 -178) =     11.80792  eV     1   --> G_2            
     e(179 -179) =     12.55721  eV     1   --> G_2            
     e(180 -180) =     12.56187  eV     1   --> G_2            
     e(181 -181) =     12.78521  eV     1   --> G_2            
     e(182 -182) =     12.79234  eV     1   --> G_2            
     e(183 -183) =     12.90576  eV     1   --> G_2            
     e(184 -184) =     12.91028  eV     1   --> G_2            
     e(185 -185) =     13.20638  eV     1   --> G_2            
     e(186 -186) =     13.22401  eV     1   --> G_2            
     e(187 -187) =     13.34145  eV     1   --> G_2            
     e(188 -188) =     13.35393  eV     1   --> G_2            
     e(189 -189) =     13.36737  eV     1   --> G_2            
     e(190 -190) =     13.37107  eV     1   --> G_2            
     e(191 -191) =     13.42513  eV     1   --> G_2            
     e(192 -192) =     13.43515  eV     1   --> G_2            
     e(193 -193) =     13.48463  eV     1   --> G_2            
     e(194 -194) =     13.55509  eV     1   --> G_2            
     e(195 -195) =     13.64949  eV     1   --> G_2            
     e(196 -196) =     13.71496  eV     1   --> G_2            
     e(197 -197) =     13.74150  eV     1   --> G_2            
     e(198 -198) =     13.76014  eV     1   --> G_2            
     e(199 -199) =     13.86749  eV     1   --> G_2            
     e(200 -200) =     13.87396  eV     1   --> G_2            

 **************************************************************************

 **************************************************************************

                    xk=(   0.00000,   0.00000,   0.00000  )

     the magnetic double point group is D_3d (-3m)  [S_6 (-3)   ]
     using the double point group S_6 (-3)   
     there are 12 classes and  6 irreducible representations
     the character table:

       E     -E    C3    -C3   C3^2  -C3^2  i    -i    S6^5  -S6^5 S6    -S6  
                                                                              
G_4+   1.00 -1.00  0.50 -0.50  0.50 -0.50  1.00 -1.00  0.50 -0.50  0.50 -0.50
G_5+   1.00 -1.00  0.50 -0.50  0.50 -0.50  1.00 -1.00  0.50 -0.50  0.50 -0.50
G_6+   1.00 -1.00 -1.00  1.00 -1.00  1.00  1.00 -1.00 -1.00  1.00 -1.00  1.00
G_4-   1.00 -1.00  0.50 -0.50  0.50 -0.50 -1.00  1.00 -0.50  0.50 -0.50  0.50
G_5-   1.00 -1.00  0.50 -0.50  0.50 -0.50 -1.00  1.00 -0.50  0.50 -0.50  0.50
G_6-   1.00 -1.00 -1.00  1.00 -1.00  1.00 -1.00  1.00  1.00 -1.00  1.00 -1.00

     imaginary part

       E     -E    C3    -C3   C3^2  -C3^2  i    -i    S6^5  -S6^5 S6    -S6  
                                                                              
G_4+   0.00  0.00  0.87 -0.87 -0.87  0.87  0.00  0.00  0.87 -0.87 -0.87  0.87
G_5+   0.00  0.00 -0.87  0.87  0.87 -0.87  0.00  0.00 -0.87  0.87  0.87 -0.87
G_6+   0.00  0.00  0.00  0.00  0.00  0.00  0.00  0.00  0.00  0.00  0.00  0.00
G_4-   0.00  0.00  0.87 -0.87 -0.87  0.87  0.00  0.00 -0.87  0.87  0.87 -0.87
G_5-   0.00  0.00 -0.87  0.87  0.87 -0.87  0.00  0.00  0.87 -0.87 -0.87  0.87
G_6-   0.00  0.00  0.00  0.00  0.00  0.00  0.00  0.00  0.00  0.00  0.00  0.00

     the symmetry operations in each class and the name of the first element:

     E             1
                                                                 
     -E           -1
                                                                 
     C3            2
                                                                 
     -C3          -2
                                                                 
     C3^2          3
                                                                 
     -C3^2        -3
                                                                 
      i            4
                                                                 
     -i           -4
                                                                 
     S6^5          5
                                                                 
     -S6^5        -5
                                                                 
     S6            6
                                                                 
     -S6          -6
                                                                 

     Band symmetry, D_3d (-3m)  [S_6 (-3)   ] magnetic double point group,
     using S_6 (-3)   

     e(  1 -  1) =    -73.99387  eV     1   --> G_4+           
     e(  2 -  2) =    -73.98844  eV     1   --> G_5+           
     e(  3 -  3) =    -69.42235  eV     1   --> G_5+           
     e(  4 -  4) =    -69.41697  eV     1   --> G_4+           
     e(  5 -  5) =    -43.24724  eV     1   --> G_5-           
     e(  6 -  6) =    -43.24212  eV     1   --> G_4-           
     e(  7 -  7) =    -42.83277  eV     1   --> G_4-           
     e(  8 -  8) =    -42.82720  eV     1   --> G_5-           
     e(  9 -  9) =    -42.33189  eV     1   --> G_6-           
     e( 10 - 10) =    -42.32650  eV     1   --> G_6-           
     e( 11 - 11) =    -38.60155  eV     1   --> G_4-           
     e( 12 - 12) =    -38.59667  eV     1   --> G_5-           
     e( 13 - 13) =    -38.18037  eV     1   --> G_5-           
     e( 14 - 14) =    -38.17478  eV     1   --> G_4-           
     e( 15 - 15) =    -37.85346  eV     1   --> G_6-           
     e( 16 - 16) =    -37.84825  eV     1   --> G_6-           
     e( 17 - 17) =    -16.98710  eV     1   -->   ?
     e( 18 - 18) =    -16.98696  eV     1   -->   ?
     e( 19 - 19) =    -16.98168  eV     1   --> G_6+           
     e( 20 - 20) =    -16.98155  eV     1   --> G_6-           
     e( 21 - 21) =    -16.97888  eV     1   --> G_4+           
     e( 22 - 22) =    -16.97864  eV     1   --> G_4-           
     e( 23 - 23) =    -16.97413  eV     1   --> G_5+           
     e( 24 - 24) =    -16.97389  eV     1   --> G_5-           
     e( 25 - 25) =    -16.96204  eV     1   --> G_6+           
     e( 26 - 26) =    -16.96188  eV     1   --> G_6-           
     e( 27 - 27) =    -16.96071  eV     1   -->   ?
     e( 28 - 28) =    -16.96059  eV     1   -->   ?
     e( 29 - 29) =    -16.95918  eV     1   --> G_4+           
     e( 30 - 30) =    -16.95894  eV     1   --> G_4-           
     e( 31 - 31) =    -16.95852  eV     1   --> G_5+           
     e( 32 - 32) =    -16.95828  eV     1   --> G_5-           
     e( 33 - 33) =    -14.00328  eV     1   --> G_4+           
     e( 34 - 34) =    -14.00316  eV     1   --> G_4-           
     e( 35 - 35) =    -14.00119  eV     1   --> G_5+           
     e( 36 - 36) =    -14.00105  eV     1   --> G_5-           
     e( 37 - 37) =    -13.99941  eV     1   --> G_5+           
     e( 38 - 38) =    -13.99921  eV     1   --> G_5-           
     e( 39 - 39) =    -13.99786  eV     1   --> G_4+           
     e( 40 - 40) =    -13.99761  eV     1   --> G_4-           
     e( 41 - 41) =    -13.99515  eV     1   --> G_6+           
     e( 42 - 42) =    -13.99500  eV     1   --> G_6-           
     e( 43 - 43) =    -13.99135  eV     1   --> G_6+           
     e( 44 - 44) =    -13.99120  eV     1   --> G_6-           
     e( 45 - 45) =    -13.98349  eV     1   --> G_4+           
     e( 46 - 46) =    -13.98336  eV     1   --> G_4-           
     e( 47 - 47) =    -13.98167  eV     1   --> G_6+           
     e( 48 - 48) =    -13.98153  eV     1   --> G_6-           
     e( 49 - 49) =    -13.97645  eV     1   --> G_5+           
     e( 50 - 50) =    -13.97628  eV     1   --> G_5-           
     e( 51 - 51) =    -13.97558  eV     1   --> G_4+           
     e( 52 - 52) =    -13.97531  eV     1   --> G_4-           
     e( 53 - 53) =    -13.97431  eV     1   --> G_6+           
     e( 54 - 54) =    -13.97416  eV     1   --> G_6-           
     e( 55 - 55) =    -13.96538  eV     1   --> G_5+           
     e( 56 - 56) =    -13.96513  eV     1   --> G_5-           
     e( 57 - 57) =     -5.53322  eV     1   --> G_5+           
     e( 58 - 58) =     -5.52446  eV     1   --> G_4+           
     e( 59 - 59) =     -5.50224  eV     1   --> G_5-           
     e( 60 - 60) =     -5.49310  eV     1   --> G_4-           
     e( 61 - 61) =     -5.31892  eV     1   --> G_5+           
     e( 62 - 62) =     -5.30902  eV     1   --> G_4+           
     e( 63 - 63) =     -5.26903  eV     1   --> G_5-           
     e( 64 - 64) =     -5.25837  eV     1   --> G_4-           
     e( 65 - 65) =     -3.87727  eV     1   --> G_4+           
     e( 66 - 66) =     -3.87649  eV     1   --> G_5+           
     e( 67 - 67) =     -3.66498  eV     1   --> G_5+           
     e( 68 - 68) =     -3.66258  eV     1   --> G_4+           
     e( 69 - 69) =     -3.40479  eV     1   --> G_4-           
     e( 70 - 70) =     -3.40419  eV     1   --> G_5-           
     e( 71 - 71) =     -3.13578  eV     1   --> G_5-           
     e( 72 - 72) =     -3.13455  eV     1   --> G_4-           
     e( 73 - 73) =     -1.49942  eV     1   --> G_5+           
     e( 74 - 74) =     -1.49440  eV     1   --> G_4+           
     e( 75 - 75) =     -1.16600  eV     1   --> G_5-           
     e( 76 - 76) =     -1.16093  eV     1   --> G_4-           
     e( 77 - 77) =     -0.82383  eV     1   --> G_5+           
     e( 78 - 78) =     -0.81677  eV     1   --> G_4+           
     e( 79 - 79) =     -0.54760  eV     1   --> G_5-           
     e( 80 - 80) =     -0.54037  eV     1   --> G_4-           
     e( 81 - 81) =      3.59644  eV     1   --> G_4+           
     e( 82 - 82) =      3.59740  eV     1   --> G_5+           
     e( 83 - 83) =      3.95961  eV     1   --> G_5+           
     e( 84 - 84) =      3.96340  eV     1   --> G_4+           
     e( 85 - 85) =      4.25420  eV     1   --> G_6+           
     e( 86 - 86) =      4.25892  eV     1   --> G_6+           
     e( 87 - 87) =      4.29293  eV     1   --> G_5+           
     e( 88 - 88) =      4.29604  eV     1   --> G_4+           
     e( 89 - 89) =      4.63599  eV     1   --> G_4-           
     e( 90 - 90) =      4.65603  eV     1   --> G_5-           
     e( 91 - 91) =      4.80843  eV     1   --> G_5+           
     e( 92 - 92) =      4.81303  eV     1   --> G_4+           
     e( 93 - 93) =      4.82199  eV     1   --> G_6+           
     e( 94 - 94) =      4.82670  eV     1   --> G_6+           
     e( 95 - 95) =      4.94061  eV     1   --> G_4+           
     e( 96 - 96) =      4.95251  eV     1   --> G_5+           
     e( 97 - 97) =      5.15362  eV     1   --> G_5-           
     e( 98 - 98) =      5.16885  eV     1   --> G_4-           
     e( 99 - 99) =      5.29782  eV     1   --> G_4+           
     e(100 -100) =      5.31582  eV     1   --> G_5+           
     e(101 -101) =      5.51204  eV     1   --> G_4+           
     e(102 -102) =      5.51222  eV     1   --> G_5+           
     e(103 -103) =      5.65381  eV     1   --> G_5+           
     e(104 -104) =      5.66690  eV     1   --> G_4+           
     e(105 -105) =      5.70991  eV     1   --> G_5-           
     e(106 -106) =      5.74616  eV     1   --> G_4-           
     e(107 -107) =      5.95040  eV     1   --> G_5+           
     e(108 -108) =      5.97848  eV     1   --> G_4+           
     e(109 -109) =      6.07479  eV     1   --> G_6+           
     e(110 -110) =      6.07765  eV     1   --> G_6+           
     e(111 -111) =      6.16855  eV     1   --> G_4-           
     e(112 -112) =      6.18677  eV     1   --> G_5-           
     e(113 -113) =      6.31002  eV     1   --> G_6-           
     e(114 -114) =      6.31393  eV     1   --> G_6-           
     e(115 -115) =      6.31489  eV     1   --> G_4-           
     e(116 -116) =      6.32274  eV     1   --> G_5-           
     e(117 -117) =      6.34516  eV     1   --> G_6+           
     e(118 -118) =      6.35527  eV     1   --> G_6+           
     e(119 -119) =      6.55875  eV     1   --> G_6-           
     e(120 -120) =      6.62807  eV     1   --> G_6-           
     e(121 -121) =      6.63599  eV     1   --> G_6+           
     e(122 -122) =      6.70509  eV     1   --> G_6+           
     e(123 -123) =      6.79871  eV     1   --> G_5-           
     e(124 -124) =      6.79884  eV     1   --> G_4-           
     e(125 -125) =      6.95141  eV     1   --> G_5-           
     e(126 -126) =      6.96001  eV     1   --> G_4-           
     e(127 -127) =      7.08526  eV     1   --> G_5+           
     e(128 -128) =      7.09072  eV     1   --> G_4+           
     e(129 -129) =      7.17669  eV     1   --> G_6-           
     e(130 -130) =      7.18156  eV     1   --> G_6-           
     e(131 -131) =      7.26716  eV     1   --> G_6-           
     e(132 -132) =      7.27563  eV     1   --> G_6-           
     e(133 -133) =      7.53575  eV     1   --> G_4+           
     e(134 -134) =      7.53882  eV     1   --> G_5+           
     e(135 -135) =      7.60717  eV     1   --> G_4+           
     e(136 -136) =      7.61862  eV     1   --> G_5+           
     e(137 -137) =      7.73013  eV     1   --> G_6+           
     e(138 -138) =      7.73568  eV     1   --> G_6+           
     e(139 -139) =      7.82701  eV     1   --> G_4-           
     e(140 -140) =      7.82856  eV     1   --> G_5-           
     e(141 -141) =      7.83519  eV     1   --> G_4-           
     e(142 -142) =      7.84100  eV     1   --> G_5-           
     e(143 -143) =      8.01918  eV     1   --> G_4+           
     e(144 -144) =      8.02766  eV     1   --> G_5+           
     e(145 -145) =      8.13579  eV     1   --> G_4-           
     e(146 -146) =      8.13709  eV     1   --> G_5-           
     e(147 -147) =      8.65042  eV     1   --> G_6+           
     e(148 -148) =      8.65199  eV     1   --> G_4+           
     e(149 -149) =      8.65412  eV     1   --> G_5+           
     e(150 -150) =      8.65535  eV     1   --> G_6+           
     e(151 -151) =      8.82207  eV     1   --> G_5+           
     e(152 -152) =      8.82534  eV     1   --> G_4+           
     e(153 -153) =      8.92299  eV     1   --> G_5+           
     e(154 -154) =      8.92819  eV     1   --> G_4+           
     e(155 -155) =      9.10807  eV     1   --> G_6+           
     e(156 -156) =      9.11768  eV     1   --> G_6+           
     e(157 -157) =      9.30349  eV     1   --> G_5+           
     e(158 -158) =      9.31384  eV     1   --> G_4+           
     e(159 -159) =      9.36996  eV     1   --> G_5-           
     e(160 -160) =      9.37833  eV     1   --> G_4-           
     e(161 -161) =      9.43522  eV     1   --> G_6-           
     e(162 -162) =      9.45732  eV     1   --> G_6-           
     e(163 -163) =      9.56287  eV     1   --> G_5-           
     e(164 -164) =      9.57338  eV     1   --> G_4-           
     e(165 -165) =      9.83770  eV     1   --> G_6-           
     e(166 -166) =      9.83834  eV     1   --> G_6+           
     e(167 -167) =      9.84296  eV     1   --> G_6-           
     e(168 -168) =      9.84749  eV     1   --> G_6+           
     e(169 -169) =      9.90198  eV     1   --> G_4+           
     e(170 -170) =      9.90224  eV     1   --> G_5+           
     e(171 -171) =     10.43851  eV     1   --> G_6+           
     e(172 -172) =     10.44489  eV     1   --> G_6+           
     e(173 -173) =     11.46466  eV     1   --> G_5-           
     e(174 -174) =     11.46644  eV     1   --> G_4-           
     e(175 -175) =     11.75984  eV     1   --> G_4-           
     e(176 -176) =     11.76003  eV     1   --> G_5-           
     e(177 -177) =     11.77661  eV     1   --> G_5+           
     e(178 -178) =     11.78268  eV     1   --> G_4+           
     e(179 -179) =     12.54615  eV     1   --> G_4+           
     e(180 -180) =     12.55058  eV     1   --> G_5+           
     e(181 -181) =     12.78666  eV     1   --> G_5-           
     e(182 -182) =     12.79492  eV     1   --> G_4-           
     e(183 -183) =     12.91600  eV     1   --> G_6-           
     e(184 -184) =     12.92148  eV     1   --> G_6-           
     e(185 -185) =     13.27800  eV     1   --> G_4+           
     e(186 -186) =     13.30046  eV     1   --> G_5+           
     e(187 -187) =     13.30449  eV     1   --> G_5-           
     e(188 -188) =     13.32341  eV     1   --> G_4-           
     e(189 -190) =     13.36287  eV     2   --> G_4+           
     e(189 -190) =     13.36287  eV     2   --> G_5+           
     e(191 -191) =     13.38178  eV     1   --> G_6-           
     e(192 -192) =     13.40035  eV     1   --> G_6-           
     e(193 -193) =     13.49711  eV     1   --> G_4-           
     e(194 -194) =     13.57579  eV     1   --> G_5-           
     e(195 -195) =     13.66111  eV     1   --> G_6+           
     e(196 -196) =     13.74369  eV     1   --> G_5+           
     e(197 -197) =     13.74630  eV     1   --> G_6+           
     e(198 -198) =     13.76425  eV     1   --> G_4+           
     e(199 -199) =     13.86088  eV     1   --> G_4-           
     e(200 -200) =     13.86285  eV     1   --> G_5-           

 **************************************************************************
 
     BANDS        :      4h56m CPU      5h37m WALL

 
   This run was terminated on:  19:41:39   1Jul2025            

=------------------------------------------------------------------------------=
   JOB DONE.
=------------------------------------------------------------------------------=
