
     Program PWSCF v.7.2 starts on 27Jun2025 at 15:27:53 

     This program is part of the open-source Quantum ESPRESSO suite
     for quantum simulation of materials; please cite
         "P. Giannozzi et al., J. Phys.:Condens. Matter 21 395502 (2009);
         "P. Giannozzi et al., J. Phys.:Condens. Matter 29 465901 (2017);
         "P. Giannozzi et al., J. Chem. Phys. 152 154105 (2020);
          URL http://www.quantum-espresso.org", 
     in publications or presentations arising from this work. More details at
     http://www.quantum-espresso.org/quote

     Parallel version (MPI), running on    64 processors

     MPI processes distributed on     1 nodes
     230727 MiB available memory on the printing compute node when the environment starts
 
     Reading input from MnBi2Te4.scf.in

     Current dimensions of program PWSCF are:
     Max number of different atomic species (ntypx) = 10
     Max number of k-points (npk) =  40000
     Max angular momentum in pseudopotentials (lmaxx) =  4
     file Mn.rel-pbe-spn-kjpaw_psl.0.3.1.UPF: wavefunction(s)  3P 3P 3D renormalized
     file Mn.rel-pbe-spn-kjpaw_psl.0.3.1.UPF: wavefunction(s)  3P 3P 3D renormalized
     file Bi.rel-pbe-dn-kjpaw_psl.1.0.0.UPF: wavefunction(s)  6P 6P 5D 5D renormalized
     file Te.rel-pbe-n-kjpaw_psl.1.0.0.UPF: wavefunction(s)  5S 5P 5P renormalized

     Fixed quantization axis for GGA:     0.000000    0.000000    1.000000
 
     R & G space division:  proc/nbgrp/npool/nimage =      64
     Subspace diagonalization in iterative solution of the eigenvalue problem:
     one sub-group per band group will be used
     scalapack distributed-memory algorithm (size of sub-group:  2*  2 procs)

 
     Parallelization info
     --------------------
     sticks:   dense  smooth     PW     G-vecs:    dense   smooth      PW
     Min         126     126     36                 2936     2936     465
     Max         127     127     37                 2938     2938     467
     Sum        8079    8079   2353               187971   187971   29827
 
     Using Slab Decomposition
 


     bravais-lattice index     =            5
     lattice parameter (alat)  =      51.7756  a.u.
     unit-cell volume          =    2994.5593 (a.u.)^3
     number of atoms/cell      =           14
     number of atomic types    =            4
     number of electrons       =       138.00
     number of Kohn-Sham states=          166
     kinetic-energy cutoff     =      60.0000  Ry
     charge density cutoff     =     240.0000  Ry
     scf convergence threshold =      1.0E-07
     mixing beta               =       0.4000
     number of iterations used =            8  plain     mixing
     Exchange-correlation= SLA  PW   PBX  PBC
                           (   1   4   3   4   0   0   0)
     Noncollinear calculation with spin-orbit


     celldm(1)=  51.775623  celldm(2)=   0.000000  celldm(3)=   0.000000
     celldm(4)=   0.987491  celldm(5)=   0.000000  celldm(6)=   0.000000

     crystal axes: (cart. coord. in units of alat)
               a(1) = (   0.079085  -0.045660   0.995822 )  
               a(2) = (   0.000000   0.091319   0.995822 )  
               a(3) = (  -0.079085  -0.045660   0.995822 )  

     reciprocal axes: (cart. coord. in units 2 pi/alat)
               b(1) = (  6.322337 -3.650203  0.334732 )  
               b(2) = (  0.000000  7.300406  0.334732 )  
               b(3) = ( -6.322337 -3.650203  0.334732 )  


     PseudoPot. # 1 for Mn read from file:
     ./Mn.rel-pbe-spn-kjpaw_psl.0.3.1.UPF
     MD5 check sum: dfba1c7561257014502ac20495784078
     Pseudo is Projector augmented-wave + core cor, Zval = 15.0
     Generated using &quot;atomic&quot; code by A. Dal Corso  v.6.2.2
     Shape of augmentation charge: PSQ
     Using radial grid of 1187 points, 10 beta functions with: 
                l(1) =   0
                l(2) =   0
                l(3) =   1
                l(4) =   1
                l(5) =   1
                l(6) =   1
                l(7) =   2
                l(8) =   2
                l(9) =   2
               l(10) =   2
     Q(r) pseudized with 0 coefficients 


     PseudoPot. # 2 for Mn read from file:
     ./Mn.rel-pbe-spn-kjpaw_psl.0.3.1.UPF
     MD5 check sum: dfba1c7561257014502ac20495784078
     Pseudo is Projector augmented-wave + core cor, Zval = 15.0
     Generated using &quot;atomic&quot; code by A. Dal Corso  v.6.2.2
     Shape of augmentation charge: PSQ
     Using radial grid of 1187 points, 10 beta functions with: 
                l(1) =   0
                l(2) =   0
                l(3) =   1
                l(4) =   1
                l(5) =   1
                l(6) =   1
                l(7) =   2
                l(8) =   2
                l(9) =   2
               l(10) =   2
     Q(r) pseudized with 0 coefficients 


     PseudoPot. # 3 for Bi read from file:
     ./Bi.rel-pbe-dn-kjpaw_psl.1.0.0.UPF
     MD5 check sum: 8010b987e9fb97324c8de82fb26a3f7d
     Pseudo is Projector augmented-wave + core cor, Zval = 15.0
     Generated using &quot;atomic&quot; code by A. Dal Corso  v.6.2.2
     Shape of augmentation charge: PSQ
     Using radial grid of 1283 points, 10 beta functions with: 
                l(1) =   0
                l(2) =   0
                l(3) =   1
                l(4) =   1
                l(5) =   1
                l(6) =   1
                l(7) =   2
                l(8) =   2
                l(9) =   2
               l(10) =   2
     Q(r) pseudized with 0 coefficients 


     PseudoPot. # 4 for Te read from file:
     ./Te.rel-pbe-n-kjpaw_psl.1.0.0.UPF
     MD5 check sum: 8399411061dffbb19b40ade5049f5146
     Pseudo is Projector augmented-wave + core cor, Zval =  6.0
     Generated using &quot;atomic&quot; code by A. Dal Corso  v.6.3
     Shape of augmentation charge: PSQ
     Using radial grid of 1245 points, 10 beta functions with: 
                l(1) =   0
                l(2) =   0
                l(3) =   1
                l(4) =   1
                l(5) =   1
                l(6) =   1
                l(7) =   2
                l(8) =   2
                l(9) =   2
               l(10) =   2
     Q(r) pseudized with 0 coefficients 


     atomic species   valence    mass     pseudopotential
        Mn1           15.00    54.93800     Mn( 1.00)
        Mn2           15.00    54.93800     Mn( 1.00)
        Bi            15.00   208.98000     Bi( 1.00)
        Te             6.00   127.60300     Te( 1.00)

     12 Sym. Ops., with inversion, found


                                    s                        frac. trans.

      isym =  1     identity                                     

 Time Reversal            0
 cryst.   s( 1) = (     1          0          0      )
                  (     0          1          0      )
                  (     0          0          1      )

 cart.    s( 1) = (  1.0000000  0.0000000  0.0000000 )
                  (  0.0000000  1.0000000  0.0000000 )
                  (  0.0000000  0.0000000  1.0000000 )


      isym =  2     180 deg rotation - cart. axis [1,0,0]        

 Time Reversal            1
 cryst.   s( 2) = (     0          0         -1      )
                  (     0         -1          0      )
                  (    -1          0          0      )

 cart.    s( 2) = (  1.0000000  0.0000000  0.0000000 )
                  (  0.0000000 -1.0000000 -0.0000000 )
                  (  0.0000000  0.0000000 -1.0000000 )


      isym =  3     120 deg rotation - cryst. axis [0,0,1]       

 Time Reversal            0
 cryst.   s( 3) = (     0          1          0      )
                  (     0          0          1      )
                  (     1          0          0      )

 cart.    s( 3) = ( -0.5000000 -0.8660254 -0.0000000 )
                  (  0.8660254 -0.5000000 -0.0000000 )
                  (  0.0000000  0.0000000  1.0000000 )


      isym =  4     120 deg rotation - cryst. axis [0,0,-1]      

 Time Reversal            0
 cryst.   s( 4) = (     0          0          1      )
                  (     1          0          0      )
                  (     0          1          0      )

 cart.    s( 4) = ( -0.5000000  0.8660254  0.0000000 )
                  ( -0.8660254 -0.5000000 -0.0000000 )
                  (  0.0000000  0.0000000  1.0000000 )


      isym =  5     180 deg rotation - cryst. axis [0,1,0]       

 Time Reversal            1
 cryst.   s( 5) = (     0         -1          0      )
                  (    -1          0          0      )
                  (     0          0         -1      )

 cart.    s( 5) = ( -0.5000000 -0.8660254 -0.0000000 )
                  ( -0.8660254  0.5000000  0.0000000 )
                  (  0.0000000  0.0000000 -1.0000000 )


      isym =  6     180 deg rotation - cryst. axis [1,1,0]       

 Time Reversal            1
 cryst.   s( 6) = (    -1          0          0      )
                  (     0          0         -1      )
                  (     0         -1          0      )

 cart.    s( 6) = ( -0.5000000  0.8660254  0.0000000 )
                  (  0.8660254  0.5000000  0.0000000 )
                  (  0.0000000  0.0000000 -1.0000000 )


      isym =  7     inversion                                    

 Time Reversal            0
 cryst.   s( 7) = (    -1          0          0      )
                  (     0         -1          0      )
                  (     0          0         -1      )

 cart.    s( 7) = ( -1.0000000  0.0000000  0.0000000 )
                  (  0.0000000 -1.0000000 -0.0000000 )
                  (  0.0000000  0.0000000 -1.0000000 )


      isym =  8     inv. 180 deg rotation - cart. axis [1,0,0]   

 Time Reversal            1
 cryst.   s( 8) = (     0          0          1      )
                  (     0          1          0      )
                  (     1          0          0      )

 cart.    s( 8) = ( -1.0000000  0.0000000  0.0000000 )
                  (  0.0000000  1.0000000  0.0000000 )
                  (  0.0000000  0.0000000  1.0000000 )


      isym =  9     inv. 120 deg rotation - cryst. axis [0,0,1]  

 Time Reversal            0
 cryst.   s( 9) = (     0         -1          0      )
                  (     0          0         -1      )
                  (    -1          0          0      )

 cart.    s( 9) = (  0.5000000  0.8660254  0.0000000 )
                  ( -0.8660254  0.5000000  0.0000000 )
                  (  0.0000000  0.0000000 -1.0000000 )


      isym = 10     inv. 120 deg rotation - cryst. axis [0,0,-1] 

 Time Reversal            0
 cryst.   s(10) = (     0          0         -1      )
                  (    -1          0          0      )
                  (     0         -1          0      )

 cart.    s(10) = (  0.5000000 -0.8660254 -0.0000000 )
                  (  0.8660254  0.5000000  0.0000000 )
                  (  0.0000000  0.0000000 -1.0000000 )


      isym = 11     inv. 180 deg rotation - cryst. axis [0,1,0]  

 Time Reversal            1
 cryst.   s(11) = (     0          1          0      )
                  (     1          0          0      )
                  (     0          0          1      )

 cart.    s(11) = (  0.5000000  0.8660254  0.0000000 )
                  (  0.8660254 -0.5000000 -0.0000000 )
                  (  0.0000000  0.0000000  1.0000000 )


      isym = 12     inv. 180 deg rotation - cryst. axis [1,1,0]  

 Time Reversal            1
 cryst.   s(12) = (     1          0          0      )
                  (     0          0          1      )
                  (     0          1          0      )

 cart.    s(12) = (  0.5000000 -0.8660254 -0.0000000 )
                  ( -0.8660254 -0.5000000 -0.0000000 )
                  (  0.0000000  0.0000000  1.0000000 )


     the magnetic double point group is D_3d (-3m)  [S_6 (-3)   ]
     using the double point group S_6 (-3)   
     there are 12 classes and  6 irreducible representations
     the character table:

       E     -E    C3    -C3   C3^2  -C3^2  i    -i    S6^5  -S6^5 S6    -S6  
                                                                              
G_4+   1.00 -1.00  0.50 -0.50  0.50 -0.50  1.00 -1.00  0.50 -0.50  0.50 -0.50
G_5+   1.00 -1.00  0.50 -0.50  0.50 -0.50  1.00 -1.00  0.50 -0.50  0.50 -0.50
G_6+   1.00 -1.00 -1.00  1.00 -1.00  1.00  1.00 -1.00 -1.00  1.00 -1.00  1.00
G_4-   1.00 -1.00  0.50 -0.50  0.50 -0.50 -1.00  1.00 -0.50  0.50 -0.50  0.50
G_5-   1.00 -1.00  0.50 -0.50  0.50 -0.50 -1.00  1.00 -0.50  0.50 -0.50  0.50
G_6-   1.00 -1.00 -1.00  1.00 -1.00  1.00 -1.00  1.00  1.00 -1.00  1.00 -1.00

     imaginary part

       E     -E    C3    -C3   C3^2  -C3^2  i    -i    S6^5  -S6^5 S6    -S6  
                                                                              
G_4+   0.00  0.00  0.87 -0.87 -0.87  0.87  0.00  0.00  0.87 -0.87 -0.87  0.87
G_5+   0.00  0.00 -0.87  0.87  0.87 -0.87  0.00  0.00 -0.87  0.87  0.87 -0.87
G_6+   0.00  0.00  0.00  0.00  0.00  0.00  0.00  0.00  0.00  0.00  0.00  0.00
G_4-   0.00  0.00  0.87 -0.87 -0.87  0.87  0.00  0.00 -0.87  0.87  0.87 -0.87
G_5-   0.00  0.00 -0.87  0.87  0.87 -0.87  0.00  0.00  0.87 -0.87 -0.87  0.87
G_6-   0.00  0.00  0.00  0.00  0.00  0.00  0.00  0.00  0.00  0.00  0.00  0.00

     the symmetry operations in each class and the name of the first element:

     E             1
          identity                                               
     -E           -1
          identity E                                             
     C3            2
          120 deg rotation - cryst. axis [0,0,1]                 
     -C3          -2
          120 deg rotation - cryst. axis [0,0,1] E               
     C3^2          3
          120 deg rotation - cryst. axis [0,0,-1]                
     -C3^2        -3
          120 deg rotation - cryst. axis [0,0,-1] E              
      i            4
          inversion                                              
     -i           -4
          inversion E                                            
     S6^5          5
          inv. 120 deg rotation - cryst. axis [0,0,1]            
     -S6^5        -5
          inv. 120 deg rotation - cryst. axis [0,0,1] E          
     S6            6
          inv. 120 deg rotation - cryst. axis [0,0,-1]           
     -S6          -6
          inv. 120 deg rotation - cryst. axis [0,0,-1] E         

   Cartesian axes

     site n.     atom                  positions (alat units)
         1           Mn1 tau(   1) = (   0.0000000   0.0000000   0.0000000  )
         2           Mn2 tau(   2) = (   0.0000000  -0.0000000   1.4937325  )
         3           Bi  tau(   3) = (   0.0000000  -0.0000000   0.6346869  )
         4           Bi  tau(   4) = (   0.0000000  -0.0000000   2.1284195  )
         5           Bi  tau(   5) = (   0.0000000  -0.0000000   0.8590456  )
         6           Bi  tau(   6) = (   0.0000000  -0.0000000   2.3527781  )
         7           Te  tau(   7) = (   0.0000000  -0.0000000   0.1992042  )
         8           Te  tau(   8) = (   0.0000000  -0.0000000   1.6929367  )
         9           Te  tau(   9) = (   0.0000000  -0.0000000   1.2945284  )
        10           Te  tau(  10) = (   0.0000000  -0.0000000   2.7882609  )
        11           Te  tau(  11) = (   0.0000000  -0.0000000   0.4392470  )
        12           Te  tau(  12) = (   0.0000000  -0.0000000   1.9329795  )
        13           Te  tau(  13) = (   0.0000000  -0.0000000   1.0544855  )
        14           Te  tau(  14) = (   0.0000000  -0.0000000   2.5482181  )

   Crystallographic axes

     site n.     atom                  positions (cryst. coord.)
         1           Mn1 tau(   1) = (  0.0000000  0.0000000  0.0000000  )
         2           Mn2 tau(   2) = (  0.5000000  0.5000000  0.5000000  )
         3           Bi  tau(   3) = (  0.2124500  0.2124500  0.2124500  )
         4           Bi  tau(   4) = (  0.7124500  0.7124500  0.7124500  )
         5           Bi  tau(   5) = (  0.2875500  0.2875500  0.2875500  )
         6           Bi  tau(   6) = (  0.7875500  0.7875500  0.7875500  )
         7           Te  tau(   7) = (  0.0666800  0.0666800  0.0666800  )
         8           Te  tau(   8) = (  0.5666800  0.5666800  0.5666800  )
         9           Te  tau(   9) = (  0.4333200  0.4333200  0.4333200  )
        10           Te  tau(  10) = (  0.9333200  0.9333200  0.9333200  )
        11           Te  tau(  11) = (  0.1470300  0.1470300  0.1470300  )
        12           Te  tau(  12) = (  0.6470300  0.6470300  0.6470300  )
        13           Te  tau(  13) = (  0.3529700  0.3529700  0.3529700  )
        14           Te  tau(  14) = (  0.8529700  0.8529700  0.8529700  )

     number of k points=    13  Marzari-Vanderbilt smearing, width (Ry)=  0.0200
                       cart. coord. in units 2pi/alat
        k(    1) = (   0.0000000   0.0000000   0.0000000), wk =   0.0156250
        k(    2) = (  -1.5805843  -0.9125508   0.0836830), wk =   0.0937500
        k(    3) = (   3.1611686   1.8251015  -0.1673660), wk =   0.0468750
        k(    4) = (  -1.5805843   0.9125508   0.1673660), wk =   0.0937500
        k(    5) = (   3.1611686   3.6502030  -0.0836830), wk =   0.1875000
        k(    6) = (   1.5805843   2.7376523   0.0000000), wk =   0.0937500
        k(    7) = (   3.1611686  -1.8251015  -0.3347320), wk =   0.0468750
        k(    8) = (   0.0000000   0.0000000   0.2510490), wk =   0.0312500
        k(    9) = (   4.7417528   2.7376523   0.0000000), wk =   0.0937500
        k(   10) = (   3.1611686   1.8251015   0.0836830), wk =   0.0937500
        k(   11) = (   4.7417528  -2.7376523  -0.2510490), wk =   0.0937500
        k(   12) = (   3.1611686  -3.6502030  -0.1673660), wk =   0.0937500
        k(   13) = (   0.0000000   0.0000000  -0.5020979), wk =   0.0156250

                       cryst. coord.
        k(    1) = (   0.0000000   0.0000000   0.0000000), wk =   0.0156250
        k(    2) = (   0.0000000  -0.0000000   0.2500000), wk =   0.0937500
        k(    3) = (   0.0000000   0.0000000  -0.5000000), wk =   0.0468750
        k(    4) = (  -0.0000000   0.2500000   0.2500000), wk =   0.0937500
        k(    5) = (   0.0000000   0.2500000  -0.5000000), wk =   0.1875000
        k(    6) = (   0.0000000   0.2500000  -0.2500000), wk =   0.0937500
        k(    7) = (   0.0000000  -0.5000000  -0.5000000), wk =   0.0468750
        k(    8) = (   0.2500000   0.2500000   0.2500000), wk =   0.0312500
        k(    9) = (   0.2500000   0.2500000  -0.5000000), wk =   0.0937500
        k(   10) = (   0.2500000   0.2500000  -0.2500000), wk =   0.0937500
        k(   11) = (   0.2500000  -0.5000000  -0.5000000), wk =   0.0937500
        k(   12) = (   0.2500000  -0.5000000  -0.2500000), wk =   0.0937500
        k(   13) = (  -0.5000000  -0.5000000  -0.5000000), wk =   0.0156250

     Dense  grid:   187971 G-vectors     FFT dimensions: ( 256, 256, 256)

     Dynamical RAM for                 wfc:       1.86 MB

     Dynamical RAM for     wfc (w. buffer):      26.03 MB

     Dynamical RAM for           str. fact:       0.18 MB

     Dynamical RAM for           local pot:       0.00 MB

     Dynamical RAM for          nlocal pot:       2.67 MB

     Dynamical RAM for                qrad:      13.03 MB

     Dynamical RAM for          rho,v,vnew:      24.54 MB

     Dynamical RAM for               rhoin:       8.18 MB

     Dynamical RAM for            rho*nmix:       2.87 MB

     Dynamical RAM for           G-vectors:       0.19 MB

     Dynamical RAM for          h,s,v(r/c):       1.26 MB

     Dynamical RAM for          <psi|beta>:       2.41 MB

     Dynamical RAM for                 psi:       3.72 MB

     Dynamical RAM for                hpsi:       3.72 MB

     Dynamical RAM for                spsi:       3.72 MB

     Dynamical RAM for      wfcinit/wfcrot:       3.67 MB

     Dynamical RAM for           addusdens:      27.83 MB

     Estimated static dynamical RAM per process >      91.04 MB

     Estimated max dynamical RAM per process >     121.74 MB

     Estimated total dynamical RAM >       7.61 GB

     Check: negative core charge=   -0.000015
     Generating pointlists ...
     new r_m :   0.0448 (alat units)  2.3181 (a.u.) for type    1
     new r_m :   0.0448 (alat units)  2.3181 (a.u.) for type    2
     new r_m :   0.0456 (alat units)  2.3625 (a.u.) for type    3
     new r_m :   0.0448 (alat units)  2.3181 (a.u.) for type    4

     Initial potential from superposition of free atoms

     starting charge     137.9938, renormalised to     138.0000

 ==============================================================================
     atom number    1 relative position :    0.0000   0.0000   0.0000
     charge :    13.702622  (integrated on a sphere of radius 0.045)
     magnetization :          0.000000    0.000000    4.474669
     magnetization/charge:    0.000000    0.000000    0.326556
     polar coord.: r, theta, phi [deg] :     4.474669    0.000000  360.000000

 ==============================================================================

 ==============================================================================
     atom number    2 relative position :    0.0000  -0.0000   1.4937
     charge :    13.702622  (integrated on a sphere of radius 0.045)
     magnetization :          0.000000    0.000000   -4.474669
     magnetization/charge:    0.000000    0.000000   -0.326556
     polar coord.: r, theta, phi [deg] :     4.474669  180.000000  360.000000

 ==============================================================================

 ==============================================================================
     atom number    3 relative position :    0.0000  -0.0000   0.6347
     charge :    12.834972  (integrated on a sphere of radius 0.046)
     magnetization :          0.000000    0.000000   -0.000781
     magnetization/charge:    0.000000    0.000000   -0.000061
     polar coord.: r, theta, phi [deg] :     0.000781  180.000000  360.000000

 ==============================================================================

 ==============================================================================
     atom number    4 relative position :    0.0000  -0.0000   2.1284
     charge :    12.834972  (integrated on a sphere of radius 0.046)
     magnetization :         -0.000000    0.000000    0.000781
     magnetization/charge:   -0.000000    0.000000    0.000061
     polar coord.: r, theta, phi [deg] :     0.000781    0.000000  360.000000

 ==============================================================================

 ==============================================================================
     atom number    5 relative position :    0.0000  -0.0000   0.8590
     charge :    12.834972  (integrated on a sphere of radius 0.046)
     magnetization :         -0.000000    0.000000    0.000781
     magnetization/charge:   -0.000000    0.000000    0.000061
     polar coord.: r, theta, phi [deg] :     0.000781    0.000000  360.000000

 ==============================================================================

 ==============================================================================
     atom number    6 relative position :    0.0000  -0.0000   2.3528
     charge :    12.834972  (integrated on a sphere of radius 0.046)
     magnetization :          0.000000    0.000000   -0.000781
     magnetization/charge:    0.000000    0.000000   -0.000061
     polar coord.: r, theta, phi [deg] :     0.000781  180.000000  360.000000

 ==============================================================================

 ==============================================================================
     atom number    7 relative position :    0.0000  -0.0000   0.1992
     charge :     3.754743  (integrated on a sphere of radius 0.045)
     magnetization :         -0.000000    0.000000    0.000018
     magnetization/charge:   -0.000000    0.000000    0.000005
     polar coord.: r, theta, phi [deg] :     0.000018    0.000000  360.000000

 ==============================================================================

 ==============================================================================
     atom number    8 relative position :    0.0000  -0.0000   1.6929
     charge :     3.754743  (integrated on a sphere of radius 0.045)
     magnetization :          0.000000    0.000000   -0.000018
     magnetization/charge:    0.000000    0.000000   -0.000005
     polar coord.: r, theta, phi [deg] :     0.000018  180.000000  360.000000

 ==============================================================================

 ==============================================================================
     atom number    9 relative position :    0.0000  -0.0000   1.2945
     charge :     3.754743  (integrated on a sphere of radius 0.045)
     magnetization :          0.000000    0.000000   -0.000018
     magnetization/charge:    0.000000    0.000000   -0.000005
     polar coord.: r, theta, phi [deg] :     0.000018  180.000000  360.000000

 ==============================================================================

 ==============================================================================
     atom number   10 relative position :    0.0000  -0.0000   2.7883
     charge :     3.754743  (integrated on a sphere of radius 0.045)
     magnetization :         -0.000000    0.000000    0.000018
     magnetization/charge:   -0.000000    0.000000    0.000005
     polar coord.: r, theta, phi [deg] :     0.000018    0.000000  360.000000

 ==============================================================================

 ==============================================================================
     atom number   11 relative position :    0.0000  -0.0000   0.4392
     charge :     3.788437  (integrated on a sphere of radius 0.045)
     magnetization :          0.000000    0.000000   -0.035317
     magnetization/charge:    0.000000    0.000000   -0.009322
     polar coord.: r, theta, phi [deg] :     0.035317  180.000000  360.000000

 ==============================================================================

 ==============================================================================
     atom number   12 relative position :    0.0000  -0.0000   1.9330
     charge :     3.788437  (integrated on a sphere of radius 0.045)
     magnetization :         -0.000000    0.000000    0.035317
     magnetization/charge:   -0.000000    0.000000    0.009322
     polar coord.: r, theta, phi [deg] :     0.035317    0.000000  360.000000

 ==============================================================================

 ==============================================================================
     atom number   13 relative position :    0.0000  -0.0000   1.0545
     charge :     3.788437  (integrated on a sphere of radius 0.045)
     magnetization :         -0.000000    0.000000    0.035317
     magnetization/charge:   -0.000000    0.000000    0.009322
     polar coord.: r, theta, phi [deg] :     0.035317    0.000000  360.000000

 ==============================================================================

 ==============================================================================
     atom number   14 relative position :    0.0000  -0.0000   2.5482
     charge :     3.788437  (integrated on a sphere of radius 0.045)
     magnetization :          0.000000    0.000000   -0.035317
     magnetization/charge:    0.000000    0.000000   -0.009322
     polar coord.: r, theta, phi [deg] :     0.035317  180.000000  360.000000

 ==============================================================================
     Starting wfcs are  176 randomized atomic wfcs
     Checking if some PAW data can be deallocated... 
       PAW data deallocated on   59 nodes for type:  1
       PAW data deallocated on   59 nodes for type:  2
       PAW data deallocated on   44 nodes for type:  3
       PAW data deallocated on   30 nodes for type:  4

     total cpu time spent up to now is       42.2 secs

     Self-consistent Calculation

     iteration #  1     ecut=    60.00 Ry     beta= 0.40
     Davidson diagonalization with overlap

---- Real-time Memory Report at c_bands before calling an iterative solver
           239 MiB given to the printing process from OS
             0 MiB allocation reported by mallinfo(arena+hblkhd)
        220075 MiB available memory on the node where the printing process lives
------------------
     ethr =  1.00E-02,  avg # of iterations =  3.5

     total cpu time spent up to now is      170.0 secs

     total energy              =   -7139.57198943 Ry
     estimated scf accuracy    <       1.55620361 Ry

     total magnetization       =     0.00    -0.00     0.06 Bohr mag/cell
     absolute magnetization    =     9.74 Bohr mag/cell

     iteration #  2     ecut=    60.00 Ry     beta= 0.40
     Davidson diagonalization with overlap

---- Real-time Memory Report at c_bands before calling an iterative solver
           307 MiB given to the printing process from OS
             0 MiB allocation reported by mallinfo(arena+hblkhd)
        215807 MiB available memory on the node where the printing process lives
------------------
     ethr =  1.13E-03,  avg # of iterations = 12.7

     total cpu time spent up to now is      377.3 secs

     total energy              =   -7136.59198426 Ry
     estimated scf accuracy    <      73.10034965 Ry

     total magnetization       =    -0.00    -0.00     0.54 Bohr mag/cell
     absolute magnetization    =     2.12 Bohr mag/cell

     iteration #  3     ecut=    60.00 Ry     beta= 0.40
     Davidson diagonalization with overlap

---- Real-time Memory Report at c_bands before calling an iterative solver
           340 MiB given to the printing process from OS
             0 MiB allocation reported by mallinfo(arena+hblkhd)
        214965 MiB available memory on the node where the printing process lives
------------------
     ethr =  1.13E-03,  avg # of iterations = 13.1

     total cpu time spent up to now is      708.1 secs

     total energy              =   -7140.07053991 Ry
     estimated scf accuracy    <       6.57098742 Ry

     total magnetization       =     0.00    -0.00     0.10 Bohr mag/cell
     absolute magnetization    =     8.99 Bohr mag/cell

     iteration #  4     ecut=    60.00 Ry     beta= 0.40
     Davidson diagonalization with overlap

---- Real-time Memory Report at c_bands before calling an iterative solver
           356 MiB given to the printing process from OS
             0 MiB allocation reported by mallinfo(arena+hblkhd)
        214797 MiB available memory on the node where the printing process lives
------------------
     ethr =  1.13E-03,  avg # of iterations =  8.0

     total cpu time spent up to now is     1168.4 secs

     total energy              =   -7139.96862123 Ry
     estimated scf accuracy    <      30.80654497 Ry

     total magnetization       =    -0.00     0.00    -1.30 Bohr mag/cell
     absolute magnetization    =     7.43 Bohr mag/cell

     iteration #  5     ecut=    60.00 Ry     beta= 0.40
     Davidson diagonalization with overlap

---- Real-time Memory Report at c_bands before calling an iterative solver
           356 MiB given to the printing process from OS
             0 MiB allocation reported by mallinfo(arena+hblkhd)
        214897 MiB available memory on the node where the printing process lives
------------------
     ethr =  1.13E-03,  avg # of iterations =  1.9

     total cpu time spent up to now is     1497.5 secs

     total energy              =   -7140.40754110 Ry
     estimated scf accuracy    <       0.04060080 Ry

     total magnetization       =    -0.00    -0.00     0.01 Bohr mag/cell
     absolute magnetization    =    10.08 Bohr mag/cell

     iteration #  6     ecut=    60.00 Ry     beta= 0.40
     Davidson diagonalization with overlap

---- Real-time Memory Report at c_bands before calling an iterative solver
           356 MiB given to the printing process from OS
             0 MiB allocation reported by mallinfo(arena+hblkhd)
        215311 MiB available memory on the node where the printing process lives
------------------
     c_bands:  1 eigenvalues not converged
     ethr =  2.94E-05,  avg # of iterations = 13.4

     total cpu time spent up to now is     1787.4 secs

     total energy              =   -7140.42042169 Ry
     estimated scf accuracy    <       0.00994723 Ry

     total magnetization       =     0.00    -0.00     0.03 Bohr mag/cell
     absolute magnetization    =    10.17 Bohr mag/cell

     iteration #  7     ecut=    60.00 Ry     beta= 0.40
     Davidson diagonalization with overlap

---- Real-time Memory Report at c_bands before calling an iterative solver
           391 MiB given to the printing process from OS
             0 MiB allocation reported by mallinfo(arena+hblkhd)
        214327 MiB available memory on the node where the printing process lives
------------------
     ethr =  7.21E-06,  avg # of iterations =  7.5
     Minimization algorithm failed to find Fermi energy: reverting to bisection
     Possible cause: smearing is larger than the electronic band-gap.

     total cpu time spent up to now is     1944.6 secs

     total energy              =   -7140.43096257 Ry
     estimated scf accuracy    <       0.01904787 Ry

     total magnetization       =     0.00     0.00    -0.08 Bohr mag/cell
     absolute magnetization    =    10.26 Bohr mag/cell

     iteration #  8     ecut=    60.00 Ry     beta= 0.40
     Davidson diagonalization with overlap

---- Real-time Memory Report at c_bands before calling an iterative solver
           391 MiB given to the printing process from OS
             0 MiB allocation reported by mallinfo(arena+hblkhd)
        214090 MiB available memory on the node where the printing process lives
------------------
     ethr =  7.21E-06,  avg # of iterations =  3.5
     Minimization algorithm failed to find Fermi energy: reverting to bisection
     Possible cause: smearing is larger than the electronic band-gap.

     total cpu time spent up to now is     2113.4 secs

     total energy              =   -7140.43586112 Ry
     estimated scf accuracy    <       0.00537613 Ry

     total magnetization       =    -0.00    -0.00    -0.01 Bohr mag/cell
     absolute magnetization    =    10.59 Bohr mag/cell

     iteration #  9     ecut=    60.00 Ry     beta= 0.40
     Davidson diagonalization with overlap

---- Real-time Memory Report at c_bands before calling an iterative solver
           391 MiB given to the printing process from OS
             0 MiB allocation reported by mallinfo(arena+hblkhd)
        213970 MiB available memory on the node where the printing process lives
------------------
     ethr =  3.90E-06,  avg # of iterations =  2.0

     total cpu time spent up to now is     2244.0 secs

     total energy              =   -7140.43492691 Ry
     estimated scf accuracy    <       0.00458429 Ry

     total magnetization       =    -0.00     0.00    -0.01 Bohr mag/cell
     absolute magnetization    =    10.67 Bohr mag/cell

     iteration # 10     ecut=    60.00 Ry     beta= 0.40
     Davidson diagonalization with overlap

---- Real-time Memory Report at c_bands before calling an iterative solver
           391 MiB given to the printing process from OS
             0 MiB allocation reported by mallinfo(arena+hblkhd)
        213918 MiB available memory on the node where the printing process lives
------------------
     ethr =  3.32E-06,  avg # of iterations =  2.0

     total cpu time spent up to now is     2359.3 secs

     total energy              =   -7140.42833189 Ry
     estimated scf accuracy    <       0.00426968 Ry

     total magnetization       =     0.00     0.00    -0.01 Bohr mag/cell
     absolute magnetization    =    10.62 Bohr mag/cell

     iteration # 11     ecut=    60.00 Ry     beta= 0.40
     Davidson diagonalization with overlap

---- Real-time Memory Report at c_bands before calling an iterative solver
           391 MiB given to the printing process from OS
             0 MiB allocation reported by mallinfo(arena+hblkhd)
        213939 MiB available memory on the node where the printing process lives
------------------
     ethr =  3.09E-06,  avg # of iterations =  3.0

     total cpu time spent up to now is     2554.6 secs

     total energy              =   -7140.42474669 Ry
     estimated scf accuracy    <       0.00459834 Ry

     total magnetization       =    -0.00     0.00    -0.02 Bohr mag/cell
     absolute magnetization    =    10.54 Bohr mag/cell

     iteration # 12     ecut=    60.00 Ry     beta= 0.40
     Davidson diagonalization with overlap

---- Real-time Memory Report at c_bands before calling an iterative solver
           391 MiB given to the printing process from OS
             0 MiB allocation reported by mallinfo(arena+hblkhd)
        213977 MiB available memory on the node where the printing process lives
------------------
     ethr =  3.09E-06,  avg # of iterations =  2.2

     total cpu time spent up to now is     3212.1 secs

     total energy              =   -7140.42608628 Ry
     estimated scf accuracy    <       0.00211860 Ry

     total magnetization       =    -0.00     0.00    -0.01 Bohr mag/cell
     absolute magnetization    =    10.41 Bohr mag/cell

     iteration # 13     ecut=    60.00 Ry     beta= 0.40
     Davidson diagonalization with overlap

---- Real-time Memory Report at c_bands before calling an iterative solver
           391 MiB given to the printing process from OS
             0 MiB allocation reported by mallinfo(arena+hblkhd)
        213944 MiB available memory on the node where the printing process lives
------------------
     ethr =  1.54E-06,  avg # of iterations =  2.5

     total cpu time spent up to now is     3841.4 secs

     total energy              =   -7140.42690449 Ry
     estimated scf accuracy    <       0.00336402 Ry

     total magnetization       =     0.00     0.00    -0.03 Bohr mag/cell
     absolute magnetization    =    10.36 Bohr mag/cell

     iteration # 14     ecut=    60.00 Ry     beta= 0.40
     Davidson diagonalization with overlap

---- Real-time Memory Report at c_bands before calling an iterative solver
           391 MiB given to the printing process from OS
             0 MiB allocation reported by mallinfo(arena+hblkhd)
        213902 MiB available memory on the node where the printing process lives
------------------
     ethr =  1.54E-06,  avg # of iterations =  3.2

     total cpu time spent up to now is     4447.9 secs

     total energy              =   -7140.42773760 Ry
     estimated scf accuracy    <       0.00753632 Ry

     total magnetization       =     0.00     0.00     0.05 Bohr mag/cell
     absolute magnetization    =    10.36 Bohr mag/cell

     iteration # 15     ecut=    60.00 Ry     beta= 0.40
     Davidson diagonalization with overlap

---- Real-time Memory Report at c_bands before calling an iterative solver
           391 MiB given to the printing process from OS
             0 MiB allocation reported by mallinfo(arena+hblkhd)
        213930 MiB available memory on the node where the printing process lives
------------------
     ethr =  1.54E-06,  avg # of iterations =  2.0

     total cpu time spent up to now is     5073.5 secs

     total energy              =   -7140.43082283 Ry
     estimated scf accuracy    <       0.00110479 Ry

     total magnetization       =    -0.00    -0.00     0.01 Bohr mag/cell
     absolute magnetization    =    10.36 Bohr mag/cell

     iteration # 16     ecut=    60.00 Ry     beta= 0.40
     Davidson diagonalization with overlap

---- Real-time Memory Report at c_bands before calling an iterative solver
           391 MiB given to the printing process from OS
             0 MiB allocation reported by mallinfo(arena+hblkhd)
        213995 MiB available memory on the node where the printing process lives
------------------
     ethr =  8.01E-07,  avg # of iterations =  3.2

     total cpu time spent up to now is     5794.2 secs

     total energy              =   -7140.42713887 Ry
     estimated scf accuracy    <       0.00189162 Ry

     total magnetization       =     0.00     0.00     0.00 Bohr mag/cell
     absolute magnetization    =    10.57 Bohr mag/cell

     iteration # 17     ecut=    60.00 Ry     beta= 0.40
     Davidson diagonalization with overlap

---- Real-time Memory Report at c_bands before calling an iterative solver
           391 MiB given to the printing process from OS
             0 MiB allocation reported by mallinfo(arena+hblkhd)
        213894 MiB available memory on the node where the printing process lives
------------------
     ethr =  8.01E-07,  avg # of iterations =  3.1

     total cpu time spent up to now is     6552.7 secs

     total energy              =   -7140.42082601 Ry
     estimated scf accuracy    <       0.00127986 Ry

     total magnetization       =     0.00     0.00    -0.01 Bohr mag/cell
     absolute magnetization    =    10.52 Bohr mag/cell

     iteration # 18     ecut=    60.00 Ry     beta= 0.40
     Davidson diagonalization with overlap

---- Real-time Memory Report at c_bands before calling an iterative solver
           392 MiB given to the printing process from OS
             0 MiB allocation reported by mallinfo(arena+hblkhd)
        213771 MiB available memory on the node where the printing process lives
------------------
     ethr =  8.01E-07,  avg # of iterations =  3.2

     total cpu time spent up to now is     7322.6 secs

     total energy              =   -7140.42387236 Ry
     estimated scf accuracy    <       0.00049744 Ry

     total magnetization       =    -0.00    -0.00     0.00 Bohr mag/cell
     absolute magnetization    =    10.20 Bohr mag/cell

     iteration # 19     ecut=    60.00 Ry     beta= 0.40
     Davidson diagonalization with overlap

---- Real-time Memory Report at c_bands before calling an iterative solver
           393 MiB given to the printing process from OS
             0 MiB allocation reported by mallinfo(arena+hblkhd)
        213838 MiB available memory on the node where the printing process lives
------------------
     ethr =  3.60E-07,  avg # of iterations =  3.1

     total cpu time spent up to now is     7981.8 secs

     total energy              =   -7140.42378520 Ry
     estimated scf accuracy    <       0.00028729 Ry

     total magnetization       =     0.00    -0.00     0.00 Bohr mag/cell
     absolute magnetization    =    10.13 Bohr mag/cell

     iteration # 20     ecut=    60.00 Ry     beta= 0.40
     Davidson diagonalization with overlap

---- Real-time Memory Report at c_bands before calling an iterative solver
           393 MiB given to the printing process from OS
             0 MiB allocation reported by mallinfo(arena+hblkhd)
        213918 MiB available memory on the node where the printing process lives
------------------
     ethr =  2.08E-07,  avg # of iterations =  3.0

     total cpu time spent up to now is     8647.1 secs

     total energy              =   -7140.42311370 Ry
     estimated scf accuracy    <       0.00027634 Ry

     total magnetization       =    -0.00    -0.00    -0.00 Bohr mag/cell
     absolute magnetization    =    10.07 Bohr mag/cell

     iteration # 21     ecut=    60.00 Ry     beta= 0.40
     Davidson diagonalization with overlap

---- Real-time Memory Report at c_bands before calling an iterative solver
           393 MiB given to the printing process from OS
             0 MiB allocation reported by mallinfo(arena+hblkhd)
        213879 MiB available memory on the node where the printing process lives
------------------
     ethr =  2.00E-07,  avg # of iterations =  3.0

     total cpu time spent up to now is     9350.6 secs

     total energy              =   -7140.42344067 Ry
     estimated scf accuracy    <       0.00010479 Ry

     total magnetization       =    -0.00     0.00     0.00 Bohr mag/cell
     absolute magnetization    =    10.00 Bohr mag/cell

     iteration # 22     ecut=    60.00 Ry     beta= 0.40
     Davidson diagonalization with overlap

---- Real-time Memory Report at c_bands before calling an iterative solver
           393 MiB given to the printing process from OS
             0 MiB allocation reported by mallinfo(arena+hblkhd)
        213980 MiB available memory on the node where the printing process lives
------------------
     ethr =  7.59E-08,  avg # of iterations =  2.2

     total cpu time spent up to now is    10000.7 secs

     total energy              =   -7140.42348826 Ry
     estimated scf accuracy    <       0.00005825 Ry

     total magnetization       =    -0.00     0.00    -0.00 Bohr mag/cell
     absolute magnetization    =     9.98 Bohr mag/cell

     iteration # 23     ecut=    60.00 Ry     beta= 0.40
     Davidson diagonalization with overlap

---- Real-time Memory Report at c_bands before calling an iterative solver
           393 MiB given to the printing process from OS
             0 MiB allocation reported by mallinfo(arena+hblkhd)
        213808 MiB available memory on the node where the printing process lives
------------------
     ethr =  4.22E-08,  avg # of iterations =  2.2

     total cpu time spent up to now is    10206.4 secs

     total energy              =   -7140.42347150 Ry
     estimated scf accuracy    <       0.00004991 Ry

     total magnetization       =    -0.00     0.00     0.00 Bohr mag/cell
     absolute magnetization    =     9.98 Bohr mag/cell

     iteration # 24     ecut=    60.00 Ry     beta= 0.40
     Davidson diagonalization with overlap

---- Real-time Memory Report at c_bands before calling an iterative solver
           394 MiB given to the printing process from OS
             0 MiB allocation reported by mallinfo(arena+hblkhd)
        213988 MiB available memory on the node where the printing process lives
------------------
     ethr =  3.62E-08,  avg # of iterations =  4.0

     total cpu time spent up to now is    10912.1 secs

     total energy              =   -7140.42349031 Ry
     estimated scf accuracy    <       0.00005510 Ry

     total magnetization       =    -0.00     0.00    -0.00 Bohr mag/cell
     absolute magnetization    =     9.97 Bohr mag/cell

     iteration # 25     ecut=    60.00 Ry     beta= 0.40
     Davidson diagonalization with overlap

---- Real-time Memory Report at c_bands before calling an iterative solver
           402 MiB given to the printing process from OS
             0 MiB allocation reported by mallinfo(arena+hblkhd)
        213626 MiB available memory on the node where the printing process lives
------------------
     ethr =  3.62E-08,  avg # of iterations =  3.2

     total cpu time spent up to now is    11605.4 secs

     total energy              =   -7140.42363023 Ry
     estimated scf accuracy    <       0.00004123 Ry

     total magnetization       =    -0.00    -0.00     0.00 Bohr mag/cell
     absolute magnetization    =     9.95 Bohr mag/cell

     iteration # 26     ecut=    60.00 Ry     beta= 0.40
     Davidson diagonalization with overlap

---- Real-time Memory Report at c_bands before calling an iterative solver
           405 MiB given to the printing process from OS
             0 MiB allocation reported by mallinfo(arena+hblkhd)
        213636 MiB available memory on the node where the printing process lives
------------------
     ethr =  2.99E-08,  avg # of iterations =  2.2

     total cpu time spent up to now is    12236.3 secs

     total energy              =   -7140.42369816 Ry
     estimated scf accuracy    <       0.00001021 Ry

     total magnetization       =    -0.00    -0.00     0.00 Bohr mag/cell
     absolute magnetization    =     9.95 Bohr mag/cell

     iteration # 27     ecut=    60.00 Ry     beta= 0.40
     Davidson diagonalization with overlap

---- Real-time Memory Report at c_bands before calling an iterative solver
           405 MiB given to the printing process from OS
             0 MiB allocation reported by mallinfo(arena+hblkhd)
        213722 MiB available memory on the node where the printing process lives
------------------
     ethr =  7.40E-09,  avg # of iterations =  4.4

     total cpu time spent up to now is    12899.8 secs

     total energy              =   -7140.42384962 Ry
     estimated scf accuracy    <       0.00000945 Ry

     total magnetization       =    -0.00     0.00     0.00 Bohr mag/cell
     absolute magnetization    =     9.97 Bohr mag/cell

     iteration # 28     ecut=    60.00 Ry     beta= 0.40
     Davidson diagonalization with overlap

---- Real-time Memory Report at c_bands before calling an iterative solver
           405 MiB given to the printing process from OS
             0 MiB allocation reported by mallinfo(arena+hblkhd)
        213485 MiB available memory on the node where the printing process lives
------------------
     ethr =  6.85E-09,  avg # of iterations =  5.2

     total cpu time spent up to now is    13804.9 secs

     total energy              =   -7140.42405589 Ry
     estimated scf accuracy    <       0.00000344 Ry

     total magnetization       =    -0.00    -0.00     0.00 Bohr mag/cell
     absolute magnetization    =     9.99 Bohr mag/cell

     iteration # 29     ecut=    60.00 Ry     beta= 0.40
     Davidson diagonalization with overlap

---- Real-time Memory Report at c_bands before calling an iterative solver
           407 MiB given to the printing process from OS
             0 MiB allocation reported by mallinfo(arena+hblkhd)
        213428 MiB available memory on the node where the printing process lives
------------------
     ethr =  2.49E-09,  avg # of iterations =  4.1

     total cpu time spent up to now is    14559.3 secs

     total energy              =   -7140.42412624 Ry
     estimated scf accuracy    <       0.00000341 Ry

     total magnetization       =    -0.00     0.00     0.00 Bohr mag/cell
     absolute magnetization    =    10.00 Bohr mag/cell

     iteration # 30     ecut=    60.00 Ry     beta= 0.40
     Davidson diagonalization with overlap

---- Real-time Memory Report at c_bands before calling an iterative solver
           407 MiB given to the printing process from OS
             0 MiB allocation reported by mallinfo(arena+hblkhd)
        213562 MiB available memory on the node where the printing process lives
------------------
     ethr =  2.47E-09,  avg # of iterations =  5.1

     total cpu time spent up to now is    15338.8 secs

     total energy              =   -7140.42417094 Ry
     estimated scf accuracy    <       0.00000342 Ry

     total magnetization       =     0.00     0.00     0.00 Bohr mag/cell
     absolute magnetization    =    10.01 Bohr mag/cell

     iteration # 31     ecut=    60.00 Ry     beta= 0.40
     Davidson diagonalization with overlap

---- Real-time Memory Report at c_bands before calling an iterative solver
           407 MiB given to the printing process from OS
             0 MiB allocation reported by mallinfo(arena+hblkhd)
        213516 MiB available memory on the node where the printing process lives
------------------
     ethr =  2.47E-09,  avg # of iterations =  3.5

     total cpu time spent up to now is    16005.2 secs

     total energy              =   -7140.42410259 Ry
     estimated scf accuracy    <       0.00000336 Ry

     total magnetization       =     0.00    -0.00     0.00 Bohr mag/cell
     absolute magnetization    =    10.01 Bohr mag/cell

     iteration # 32     ecut=    60.00 Ry     beta= 0.40
     Davidson diagonalization with overlap

---- Real-time Memory Report at c_bands before calling an iterative solver
           408 MiB given to the printing process from OS
             0 MiB allocation reported by mallinfo(arena+hblkhd)
        213668 MiB available memory on the node where the printing process lives
------------------
     ethr =  2.44E-09,  avg # of iterations =  3.8

     total cpu time spent up to now is    16532.9 secs

     total energy              =   -7140.42412009 Ry
     estimated scf accuracy    <       0.00000310 Ry

     total magnetization       =     0.00    -0.00     0.00 Bohr mag/cell
     absolute magnetization    =    10.00 Bohr mag/cell

     iteration # 33     ecut=    60.00 Ry     beta= 0.40
     Davidson diagonalization with overlap

---- Real-time Memory Report at c_bands before calling an iterative solver
           411 MiB given to the printing process from OS
             0 MiB allocation reported by mallinfo(arena+hblkhd)
        213327 MiB available memory on the node where the printing process lives
------------------
     ethr =  2.25E-09,  avg # of iterations =  2.0

     total cpu time spent up to now is    17163.2 secs

     total energy              =   -7140.42412571 Ry
     estimated scf accuracy    <       0.00000271 Ry

     total magnetization       =    -0.00    -0.00     0.00 Bohr mag/cell
     absolute magnetization    =    10.00 Bohr mag/cell

     iteration # 34     ecut=    60.00 Ry     beta= 0.40
     Davidson diagonalization with overlap

---- Real-time Memory Report at c_bands before calling an iterative solver
           411 MiB given to the printing process from OS
             0 MiB allocation reported by mallinfo(arena+hblkhd)
        213416 MiB available memory on the node where the printing process lives
------------------
     ethr =  1.97E-09,  avg # of iterations =  3.0

     total cpu time spent up to now is    17844.0 secs

     total energy              =   -7140.42423165 Ry
     estimated scf accuracy    <       0.00000216 Ry

     total magnetization       =    -0.00     0.00     0.00 Bohr mag/cell
     absolute magnetization    =    10.00 Bohr mag/cell

     iteration # 35     ecut=    60.00 Ry     beta= 0.40
     Davidson diagonalization with overlap

---- Real-time Memory Report at c_bands before calling an iterative solver
           411 MiB given to the printing process from OS
             0 MiB allocation reported by mallinfo(arena+hblkhd)
        213299 MiB available memory on the node where the printing process lives
------------------
     ethr =  1.57E-09,  avg # of iterations =  5.3

     total cpu time spent up to now is    18777.9 secs

     total energy              =   -7140.42432910 Ry
     estimated scf accuracy    <       0.00000234 Ry

     total magnetization       =    -0.00    -0.00     0.00 Bohr mag/cell
     absolute magnetization    =    10.00 Bohr mag/cell

     iteration # 36     ecut=    60.00 Ry     beta= 0.40
     Davidson diagonalization with overlap

---- Real-time Memory Report at c_bands before calling an iterative solver
           411 MiB given to the printing process from OS
             0 MiB allocation reported by mallinfo(arena+hblkhd)
        213117 MiB available memory on the node where the printing process lives
------------------
     ethr =  1.57E-09,  avg # of iterations =  5.3

     total cpu time spent up to now is    19599.2 secs

     total energy              =   -7140.42437186 Ry
     estimated scf accuracy    <       0.00000204 Ry

     total magnetization       =    -0.00    -0.00     0.00 Bohr mag/cell
     absolute magnetization    =    10.01 Bohr mag/cell

     iteration # 37     ecut=    60.00 Ry     beta= 0.40
     Davidson diagonalization with overlap

---- Real-time Memory Report at c_bands before calling an iterative solver
           411 MiB given to the printing process from OS
             0 MiB allocation reported by mallinfo(arena+hblkhd)
        212962 MiB available memory on the node where the printing process lives
------------------
     ethr =  1.48E-09,  avg # of iterations =  3.3

     total cpu time spent up to now is    20059.0 secs

     total energy              =   -7140.42442779 Ry
     estimated scf accuracy    <       0.00000234 Ry

     total magnetization       =     0.00     0.00     0.00 Bohr mag/cell
     absolute magnetization    =    10.01 Bohr mag/cell

     iteration # 38     ecut=    60.00 Ry     beta= 0.40
     Davidson diagonalization with overlap

---- Real-time Memory Report at c_bands before calling an iterative solver
           411 MiB given to the printing process from OS
             0 MiB allocation reported by mallinfo(arena+hblkhd)
        212931 MiB available memory on the node where the printing process lives
------------------
     ethr =  1.48E-09,  avg # of iterations =  4.0

     total cpu time spent up to now is    20456.7 secs

     total energy              =   -7140.42443894 Ry
     estimated scf accuracy    <       0.00000202 Ry

     total magnetization       =     0.00     0.00     0.00 Bohr mag/cell
     absolute magnetization    =    10.02 Bohr mag/cell

     iteration # 39     ecut=    60.00 Ry     beta= 0.40
     Davidson diagonalization with overlap

---- Real-time Memory Report at c_bands before calling an iterative solver
           413 MiB given to the printing process from OS
             0 MiB allocation reported by mallinfo(arena+hblkhd)
        212994 MiB available memory on the node where the printing process lives
------------------
     ethr =  1.46E-09,  avg # of iterations =  2.0

     total cpu time spent up to now is    21114.6 secs

     total energy              =   -7140.42439678 Ry
     estimated scf accuracy    <       0.00000187 Ry

     total magnetization       =    -0.00     0.00     0.00 Bohr mag/cell
     absolute magnetization    =    10.02 Bohr mag/cell

     iteration # 40     ecut=    60.00 Ry     beta= 0.40
     Davidson diagonalization with overlap

---- Real-time Memory Report at c_bands before calling an iterative solver
           413 MiB given to the printing process from OS
             0 MiB allocation reported by mallinfo(arena+hblkhd)
        213081 MiB available memory on the node where the printing process lives
------------------
     ethr =  1.35E-09,  avg # of iterations =  3.2

     total cpu time spent up to now is    21853.7 secs

     total energy              =   -7140.42445902 Ry
     estimated scf accuracy    <       0.00000208 Ry

     total magnetization       =     0.00    -0.00     0.00 Bohr mag/cell
     absolute magnetization    =    10.02 Bohr mag/cell

     iteration # 41     ecut=    60.00 Ry     beta= 0.40
     Davidson diagonalization with overlap

---- Real-time Memory Report at c_bands before calling an iterative solver
           413 MiB given to the printing process from OS
             0 MiB allocation reported by mallinfo(arena+hblkhd)
        212919 MiB available memory on the node where the printing process lives
------------------
     ethr =  1.35E-09,  avg # of iterations =  4.4

     total cpu time spent up to now is    22664.6 secs

     total energy              =   -7140.42439689 Ry
     estimated scf accuracy    <       0.00000189 Ry

     total magnetization       =     0.00    -0.00     0.00 Bohr mag/cell
     absolute magnetization    =    10.02 Bohr mag/cell

     iteration # 42     ecut=    60.00 Ry     beta= 0.40
     Davidson diagonalization with overlap

---- Real-time Memory Report at c_bands before calling an iterative solver
           413 MiB given to the printing process from OS
             0 MiB allocation reported by mallinfo(arena+hblkhd)
        212797 MiB available memory on the node where the printing process lives
------------------
     ethr =  1.35E-09,  avg # of iterations =  4.1

     total cpu time spent up to now is    23472.2 secs

     total energy              =   -7140.42443372 Ry
     estimated scf accuracy    <       0.00000215 Ry

     total magnetization       =     0.00     0.00     0.00 Bohr mag/cell
     absolute magnetization    =    10.02 Bohr mag/cell

     iteration # 43     ecut=    60.00 Ry     beta= 0.40
     Davidson diagonalization with overlap

---- Real-time Memory Report at c_bands before calling an iterative solver
           413 MiB given to the printing process from OS
             0 MiB allocation reported by mallinfo(arena+hblkhd)
        212884 MiB available memory on the node where the printing process lives
------------------
     ethr =  1.35E-09,  avg # of iterations =  3.2

     total cpu time spent up to now is    24191.8 secs

     total energy              =   -7140.42456161 Ry
     estimated scf accuracy    <       0.00000198 Ry

     total magnetization       =     0.00     0.00     0.00 Bohr mag/cell
     absolute magnetization    =    10.02 Bohr mag/cell

     iteration # 44     ecut=    60.00 Ry     beta= 0.40
     Davidson diagonalization with overlap

---- Real-time Memory Report at c_bands before calling an iterative solver
           413 MiB given to the printing process from OS
             0 MiB allocation reported by mallinfo(arena+hblkhd)
        212951 MiB available memory on the node where the printing process lives
------------------
     ethr =  1.35E-09,  avg # of iterations =  5.5
     Minimization algorithm failed to find Fermi energy: reverting to bisection
     Possible cause: smearing is larger than the electronic band-gap.

     total cpu time spent up to now is    24821.6 secs

     total energy              =   -7140.42465058 Ry
     estimated scf accuracy    <       0.00000199 Ry

     total magnetization       =    -0.00     0.00     0.00 Bohr mag/cell
     absolute magnetization    =    10.03 Bohr mag/cell

     iteration # 45     ecut=    60.00 Ry     beta= 0.40
     Davidson diagonalization with overlap

---- Real-time Memory Report at c_bands before calling an iterative solver
           419 MiB given to the printing process from OS
             0 MiB allocation reported by mallinfo(arena+hblkhd)
        212777 MiB available memory on the node where the printing process lives
------------------
     ethr =  1.35E-09,  avg # of iterations =  4.0

     total cpu time spent up to now is    25043.9 secs

     total energy              =   -7140.42480246 Ry
     estimated scf accuracy    <       0.00000171 Ry

     total magnetization       =    -0.00    -0.00     0.00 Bohr mag/cell
     absolute magnetization    =    10.04 Bohr mag/cell

     iteration # 46     ecut=    60.00 Ry     beta= 0.40
     Davidson diagonalization with overlap

---- Real-time Memory Report at c_bands before calling an iterative solver
           419 MiB given to the printing process from OS
             0 MiB allocation reported by mallinfo(arena+hblkhd)
        212874 MiB available memory on the node where the printing process lives
------------------
     ethr =  1.24E-09,  avg # of iterations =  6.6

     total cpu time spent up to now is    26046.5 secs

     total energy              =   -7140.42496506 Ry
     estimated scf accuracy    <       0.00000186 Ry

     total magnetization       =     0.00    -0.00     0.00 Bohr mag/cell
     absolute magnetization    =    10.06 Bohr mag/cell

     iteration # 47     ecut=    60.00 Ry     beta= 0.40
     Davidson diagonalization with overlap

---- Real-time Memory Report at c_bands before calling an iterative solver
           419 MiB given to the printing process from OS
             0 MiB allocation reported by mallinfo(arena+hblkhd)
        212706 MiB available memory on the node where the printing process lives
------------------
     ethr =  1.24E-09,  avg # of iterations =  5.9

     total cpu time spent up to now is    26971.9 secs

     total energy              =   -7140.42508210 Ry
     estimated scf accuracy    <       0.00000174 Ry

     total magnetization       =     0.00    -0.00     0.00 Bohr mag/cell
     absolute magnetization    =    10.08 Bohr mag/cell

     iteration # 48     ecut=    60.00 Ry     beta= 0.40
     Davidson diagonalization with overlap

---- Real-time Memory Report at c_bands before calling an iterative solver
           421 MiB given to the printing process from OS
             0 MiB allocation reported by mallinfo(arena+hblkhd)
        212710 MiB available memory on the node where the printing process lives
------------------
     ethr =  1.24E-09,  avg # of iterations =  7.2

     total cpu time spent up to now is    27988.4 secs

     total energy              =   -7140.42523879 Ry
     estimated scf accuracy    <       0.00000189 Ry

     total magnetization       =     0.00    -0.00     0.00 Bohr mag/cell
     absolute magnetization    =    10.11 Bohr mag/cell

     iteration # 49     ecut=    60.00 Ry     beta= 0.40
     Davidson diagonalization with overlap

---- Real-time Memory Report at c_bands before calling an iterative solver
           423 MiB given to the printing process from OS
             0 MiB allocation reported by mallinfo(arena+hblkhd)
        212532 MiB available memory on the node where the printing process lives
------------------
     ethr =  1.24E-09,  avg # of iterations =  5.5
     Minimization algorithm failed to find Fermi energy: reverting to bisection
     Possible cause: smearing is larger than the electronic band-gap.

     total cpu time spent up to now is    28775.5 secs

     total energy              =   -7140.42525536 Ry
     estimated scf accuracy    <       0.00000210 Ry

     total magnetization       =     0.00     0.00     0.00 Bohr mag/cell
     absolute magnetization    =    10.12 Bohr mag/cell

     iteration # 50     ecut=    60.00 Ry     beta= 0.40
     Davidson diagonalization with overlap

---- Real-time Memory Report at c_bands before calling an iterative solver
           423 MiB given to the printing process from OS
             0 MiB allocation reported by mallinfo(arena+hblkhd)
        212365 MiB available memory on the node where the printing process lives
------------------
     ethr =  1.24E-09,  avg # of iterations =  3.8

     total cpu time spent up to now is    29457.4 secs

     total energy              =   -7140.42527527 Ry
     estimated scf accuracy    <       0.00000135 Ry

     total magnetization       =    -0.00     0.00     0.00 Bohr mag/cell
     absolute magnetization    =    10.12 Bohr mag/cell

     iteration # 51     ecut=    60.00 Ry     beta= 0.40
     Davidson diagonalization with overlap

---- Real-time Memory Report at c_bands before calling an iterative solver
           423 MiB given to the printing process from OS
             0 MiB allocation reported by mallinfo(arena+hblkhd)
        212296 MiB available memory on the node where the printing process lives
------------------
     ethr =  9.78E-10,  avg # of iterations =  3.8
     Minimization algorithm failed to find Fermi energy: reverting to bisection
     Possible cause: smearing is larger than the electronic band-gap.

     total cpu time spent up to now is    30197.2 secs

     total energy              =   -7140.42524172 Ry
     estimated scf accuracy    <       0.00000117 Ry

     total magnetization       =    -0.00    -0.00     0.00 Bohr mag/cell
     absolute magnetization    =    10.12 Bohr mag/cell

     iteration # 52     ecut=    60.00 Ry     beta= 0.40
     Davidson diagonalization with overlap

---- Real-time Memory Report at c_bands before calling an iterative solver
           423 MiB given to the printing process from OS
             0 MiB allocation reported by mallinfo(arena+hblkhd)
        212385 MiB available memory on the node where the printing process lives
------------------
     ethr =  8.47E-10,  avg # of iterations =  4.1

     total cpu time spent up to now is    30828.8 secs

     total energy              =   -7140.42529764 Ry
     estimated scf accuracy    <       0.00000131 Ry

     total magnetization       =     0.00     0.00     0.00 Bohr mag/cell
     absolute magnetization    =    10.12 Bohr mag/cell

     iteration # 53     ecut=    60.00 Ry     beta= 0.40
     Davidson diagonalization with overlap

---- Real-time Memory Report at c_bands before calling an iterative solver
           423 MiB given to the printing process from OS
             0 MiB allocation reported by mallinfo(arena+hblkhd)
        212241 MiB available memory on the node where the printing process lives
------------------
     ethr =  8.47E-10,  avg # of iterations =  6.2

     total cpu time spent up to now is    31404.6 secs

     total energy              =   -7140.42535231 Ry
     estimated scf accuracy    <       0.00000093 Ry

     total magnetization       =     0.00     0.00     0.00 Bohr mag/cell
     absolute magnetization    =    10.13 Bohr mag/cell

     iteration # 54     ecut=    60.00 Ry     beta= 0.40
     Davidson diagonalization with overlap

---- Real-time Memory Report at c_bands before calling an iterative solver
           423 MiB given to the printing process from OS
             0 MiB allocation reported by mallinfo(arena+hblkhd)
        212114 MiB available memory on the node where the printing process lives
------------------
     ethr =  6.76E-10,  avg # of iterations =  6.2

     total cpu time spent up to now is    32343.2 secs

     total energy              =   -7140.42539673 Ry
     estimated scf accuracy    <       0.00000145 Ry

     total magnetization       =    -0.00    -0.00     0.00 Bohr mag/cell
     absolute magnetization    =    10.14 Bohr mag/cell

     iteration # 55     ecut=    60.00 Ry     beta= 0.40
     Davidson diagonalization with overlap

---- Real-time Memory Report at c_bands before calling an iterative solver
           423 MiB given to the printing process from OS
             0 MiB allocation reported by mallinfo(arena+hblkhd)
        212385 MiB available memory on the node where the printing process lives
------------------
     ethr =  6.76E-10,  avg # of iterations =  5.9

     total cpu time spent up to now is    33260.3 secs

     total energy              =   -7140.42541930 Ry
     estimated scf accuracy    <       0.00000119 Ry

     total magnetization       =    -0.00    -0.00     0.00 Bohr mag/cell
     absolute magnetization    =    10.15 Bohr mag/cell

     iteration # 56     ecut=    60.00 Ry     beta= 0.40
     Davidson diagonalization with overlap

---- Real-time Memory Report at c_bands before calling an iterative solver
           423 MiB given to the printing process from OS
             0 MiB allocation reported by mallinfo(arena+hblkhd)
        212290 MiB available memory on the node where the printing process lives
------------------
     ethr =  6.76E-10,  avg # of iterations =  4.1

     total cpu time spent up to now is    34046.1 secs

     total energy              =   -7140.42541915 Ry
     estimated scf accuracy    <       0.00000103 Ry

     total magnetization       =    -0.00     0.00     0.00 Bohr mag/cell
     absolute magnetization    =    10.15 Bohr mag/cell

     iteration # 57     ecut=    60.00 Ry     beta= 0.40
     Davidson diagonalization with overlap

---- Real-time Memory Report at c_bands before calling an iterative solver
           424 MiB given to the printing process from OS
             0 MiB allocation reported by mallinfo(arena+hblkhd)
        212006 MiB available memory on the node where the printing process lives
------------------
     ethr =  6.76E-10,  avg # of iterations =  2.0

     total cpu time spent up to now is    34616.7 secs

     total energy              =   -7140.42539912 Ry
     estimated scf accuracy    <       0.00000103 Ry

     total magnetization       =     0.00    -0.00     0.00 Bohr mag/cell
     absolute magnetization    =    10.15 Bohr mag/cell

     iteration # 58     ecut=    60.00 Ry     beta= 0.40
     Davidson diagonalization with overlap

---- Real-time Memory Report at c_bands before calling an iterative solver
           424 MiB given to the printing process from OS
             0 MiB allocation reported by mallinfo(arena+hblkhd)
        212017 MiB available memory on the node where the printing process lives
------------------
     ethr =  6.76E-10,  avg # of iterations =  3.8

     total cpu time spent up to now is    35391.2 secs

     total energy              =   -7140.42539111 Ry
     estimated scf accuracy    <       0.00000110 Ry

     total magnetization       =    -0.00    -0.00     0.00 Bohr mag/cell
     absolute magnetization    =    10.15 Bohr mag/cell

     iteration # 59     ecut=    60.00 Ry     beta= 0.40
     Davidson diagonalization with overlap

---- Real-time Memory Report at c_bands before calling an iterative solver
           424 MiB given to the printing process from OS
             0 MiB allocation reported by mallinfo(arena+hblkhd)
        212014 MiB available memory on the node where the printing process lives
------------------
     ethr =  6.76E-10,  avg # of iterations =  4.0

     total cpu time spent up to now is    36135.0 secs

     total energy              =   -7140.42532405 Ry
     estimated scf accuracy    <       0.00000083 Ry

     total magnetization       =    -0.00    -0.00     0.00 Bohr mag/cell
     absolute magnetization    =    10.14 Bohr mag/cell

     iteration # 60     ecut=    60.00 Ry     beta= 0.40
     Davidson diagonalization with overlap

---- Real-time Memory Report at c_bands before calling an iterative solver
           424 MiB given to the printing process from OS
             0 MiB allocation reported by mallinfo(arena+hblkhd)
        212102 MiB available memory on the node where the printing process lives
------------------
     ethr =  6.05E-10,  avg # of iterations =  6.7

     total cpu time spent up to now is    37207.3 secs

     total energy              =   -7140.42532653 Ry
     estimated scf accuracy    <       0.00000113 Ry

     total magnetization       =    -0.00    -0.00     0.00 Bohr mag/cell
     absolute magnetization    =    10.13 Bohr mag/cell

     iteration # 61     ecut=    60.00 Ry     beta= 0.40
     Davidson diagonalization with overlap

---- Real-time Memory Report at c_bands before calling an iterative solver
           424 MiB given to the printing process from OS
             0 MiB allocation reported by mallinfo(arena+hblkhd)
        211992 MiB available memory on the node where the printing process lives
------------------
     ethr =  6.05E-10,  avg # of iterations =  3.5

     total cpu time spent up to now is    37972.9 secs

     total energy              =   -7140.42531880 Ry
     estimated scf accuracy    <       0.00000094 Ry

     total magnetization       =    -0.00     0.00     0.00 Bohr mag/cell
     absolute magnetization    =    10.13 Bohr mag/cell

     iteration # 62     ecut=    60.00 Ry     beta= 0.40
     Davidson diagonalization with overlap

---- Real-time Memory Report at c_bands before calling an iterative solver
           424 MiB given to the printing process from OS
             0 MiB allocation reported by mallinfo(arena+hblkhd)
        212001 MiB available memory on the node where the printing process lives
------------------
     ethr =  6.05E-10,  avg # of iterations =  3.7
     Minimization algorithm failed to find Fermi energy: reverting to bisection
     Possible cause: smearing is larger than the electronic band-gap.

     total cpu time spent up to now is    38495.5 secs

     total energy              =   -7140.42531738 Ry
     estimated scf accuracy    <       0.00000102 Ry

     total magnetization       =    -0.00     0.00     0.00 Bohr mag/cell
     absolute magnetization    =    10.13 Bohr mag/cell

     iteration # 63     ecut=    60.00 Ry     beta= 0.40
     Davidson diagonalization with overlap

---- Real-time Memory Report at c_bands before calling an iterative solver
           424 MiB given to the printing process from OS
             0 MiB allocation reported by mallinfo(arena+hblkhd)
        211993 MiB available memory on the node where the printing process lives
------------------
     ethr =  6.05E-10,  avg # of iterations =  2.0

     total cpu time spent up to now is    39091.6 secs

     total energy              =   -7140.42534197 Ry
     estimated scf accuracy    <       0.00000120 Ry

     total magnetization       =     0.00    -0.00     0.00 Bohr mag/cell
     absolute magnetization    =    10.13 Bohr mag/cell

     iteration # 64     ecut=    60.00 Ry     beta= 0.40
     Davidson diagonalization with overlap

---- Real-time Memory Report at c_bands before calling an iterative solver
           424 MiB given to the printing process from OS
             0 MiB allocation reported by mallinfo(arena+hblkhd)
        212067 MiB available memory on the node where the printing process lives
------------------
     ethr =  6.05E-10,  avg # of iterations =  5.2

     total cpu time spent up to now is    39497.2 secs

     total energy              =   -7140.42535291 Ry
     estimated scf accuracy    <       0.00000105 Ry

     total magnetization       =    -0.00     0.00     0.00 Bohr mag/cell
     absolute magnetization    =    10.13 Bohr mag/cell

     iteration # 65     ecut=    60.00 Ry     beta= 0.40
     Davidson diagonalization with overlap

---- Real-time Memory Report at c_bands before calling an iterative solver
           424 MiB given to the printing process from OS
             0 MiB allocation reported by mallinfo(arena+hblkhd)
        211935 MiB available memory on the node where the printing process lives
------------------
     ethr =  6.05E-10,  avg # of iterations =  3.6

     total cpu time spent up to now is    40183.2 secs

     total energy              =   -7140.42536273 Ry
     estimated scf accuracy    <       0.00000103 Ry

     total magnetization       =    -0.00     0.00     0.00 Bohr mag/cell
     absolute magnetization    =    10.14 Bohr mag/cell

     iteration # 66     ecut=    60.00 Ry     beta= 0.40
     Davidson diagonalization with overlap

---- Real-time Memory Report at c_bands before calling an iterative solver
           424 MiB given to the printing process from OS
             0 MiB allocation reported by mallinfo(arena+hblkhd)
        212119 MiB available memory on the node where the printing process lives
------------------
     ethr =  6.05E-10,  avg # of iterations =  4.3

     total cpu time spent up to now is    40911.5 secs

     total energy              =   -7140.42535602 Ry
     estimated scf accuracy    <       0.00000095 Ry

     total magnetization       =    -0.00     0.00     0.00 Bohr mag/cell
     absolute magnetization    =    10.14 Bohr mag/cell

     iteration # 67     ecut=    60.00 Ry     beta= 0.40
     Davidson diagonalization with overlap

---- Real-time Memory Report at c_bands before calling an iterative solver
           427 MiB given to the printing process from OS
             0 MiB allocation reported by mallinfo(arena+hblkhd)
        212341 MiB available memory on the node where the printing process lives
------------------
     ethr =  6.05E-10,  avg # of iterations =  4.2

     total cpu time spent up to now is    41697.2 secs

     total energy              =   -7140.42537571 Ry
     estimated scf accuracy    <       0.00000104 Ry

     total magnetization       =     0.00    -0.00     0.00 Bohr mag/cell
     absolute magnetization    =    10.14 Bohr mag/cell

     iteration # 68     ecut=    60.00 Ry     beta= 0.40
     Davidson diagonalization with overlap

---- Real-time Memory Report at c_bands before calling an iterative solver
           427 MiB given to the printing process from OS
             0 MiB allocation reported by mallinfo(arena+hblkhd)
        212121 MiB available memory on the node where the printing process lives
------------------
     ethr =  6.05E-10,  avg # of iterations =  5.4

     total cpu time spent up to now is    42131.3 secs

     total energy              =   -7140.42539365 Ry
     estimated scf accuracy    <       0.00000153 Ry

     total magnetization       =     0.00    -0.00     0.00 Bohr mag/cell
     absolute magnetization    =    10.14 Bohr mag/cell

     iteration # 69     ecut=    60.00 Ry     beta= 0.40
     Davidson diagonalization with overlap

---- Real-time Memory Report at c_bands before calling an iterative solver
           427 MiB given to the printing process from OS
             0 MiB allocation reported by mallinfo(arena+hblkhd)
        212102 MiB available memory on the node where the printing process lives
------------------
     ethr =  6.05E-10,  avg # of iterations =  3.9

     total cpu time spent up to now is    42329.8 secs

     total energy              =   -7140.42533529 Ry
     estimated scf accuracy    <       0.00000145 Ry

     total magnetization       =     0.00    -0.00     0.00 Bohr mag/cell
     absolute magnetization    =    10.14 Bohr mag/cell

     iteration # 70     ecut=    60.00 Ry     beta= 0.40
     Davidson diagonalization with overlap

---- Real-time Memory Report at c_bands before calling an iterative solver
           427 MiB given to the printing process from OS
             0 MiB allocation reported by mallinfo(arena+hblkhd)
        211966 MiB available memory on the node where the printing process lives
------------------
     ethr =  6.05E-10,  avg # of iterations =  6.6

     total cpu time spent up to now is    42697.9 secs

     total energy              =   -7140.42528128 Ry
     estimated scf accuracy    <       0.00000137 Ry

     total magnetization       =    -0.00    -0.00     0.00 Bohr mag/cell
     absolute magnetization    =    10.13 Bohr mag/cell

     iteration # 71     ecut=    60.00 Ry     beta= 0.40
     Davidson diagonalization with overlap

---- Real-time Memory Report at c_bands before calling an iterative solver
           429 MiB given to the printing process from OS
             0 MiB allocation reported by mallinfo(arena+hblkhd)
        211821 MiB available memory on the node where the printing process lives
------------------
     ethr =  6.05E-10,  avg # of iterations =  7.2

     total cpu time spent up to now is    42935.5 secs

     total energy              =   -7140.42531054 Ry
     estimated scf accuracy    <       0.00000159 Ry

     total magnetization       =    -0.00    -0.00     0.00 Bohr mag/cell
     absolute magnetization    =    10.12 Bohr mag/cell

     iteration # 72     ecut=    60.00 Ry     beta= 0.40
     Davidson diagonalization with overlap

---- Real-time Memory Report at c_bands before calling an iterative solver
           429 MiB given to the printing process from OS
             0 MiB allocation reported by mallinfo(arena+hblkhd)
        211809 MiB available memory on the node where the printing process lives
------------------
     ethr =  6.05E-10,  avg # of iterations =  3.5

     total cpu time spent up to now is    43297.7 secs

     total energy              =   -7140.42527020 Ry
     estimated scf accuracy    <       0.00000164 Ry

     total magnetization       =     0.00    -0.00     0.00 Bohr mag/cell
     absolute magnetization    =    10.12 Bohr mag/cell

     iteration # 73     ecut=    60.00 Ry     beta= 0.40
     Davidson diagonalization with overlap

---- Real-time Memory Report at c_bands before calling an iterative solver
           429 MiB given to the printing process from OS
             0 MiB allocation reported by mallinfo(arena+hblkhd)
        211840 MiB available memory on the node where the printing process lives
------------------
     ethr =  6.05E-10,  avg # of iterations =  6.2

     total cpu time spent up to now is    43701.5 secs

     total energy              =   -7140.42524138 Ry
     estimated scf accuracy    <       0.00000196 Ry

     total magnetization       =    -0.00    -0.00     0.00 Bohr mag/cell
     absolute magnetization    =    10.12 Bohr mag/cell

     iteration # 74     ecut=    60.00 Ry     beta= 0.40
     Davidson diagonalization with overlap

---- Real-time Memory Report at c_bands before calling an iterative solver
           429 MiB given to the printing process from OS
             0 MiB allocation reported by mallinfo(arena+hblkhd)
        211782 MiB available memory on the node where the printing process lives
------------------
     ethr =  6.05E-10,  avg # of iterations =  6.8

     total cpu time spent up to now is    43889.2 secs

     total energy              =   -7140.42526949 Ry
     estimated scf accuracy    <       0.00000078 Ry

     total magnetization       =    -0.00     0.00     0.00 Bohr mag/cell
     absolute magnetization    =    10.12 Bohr mag/cell

     iteration # 75     ecut=    60.00 Ry     beta= 0.40
     Davidson diagonalization with overlap

---- Real-time Memory Report at c_bands before calling an iterative solver
           429 MiB given to the printing process from OS
             0 MiB allocation reported by mallinfo(arena+hblkhd)
        211716 MiB available memory on the node where the printing process lives
------------------
     ethr =  5.67E-10,  avg # of iterations =  6.4

     total cpu time spent up to now is    44644.9 secs

     total energy              =   -7140.42527525 Ry
     estimated scf accuracy    <       0.00000089 Ry

     total magnetization       =    -0.00    -0.00     0.00 Bohr mag/cell
     absolute magnetization    =    10.12 Bohr mag/cell

     iteration # 76     ecut=    60.00 Ry     beta= 0.40
     Davidson diagonalization with overlap

---- Real-time Memory Report at c_bands before calling an iterative solver
           429 MiB given to the printing process from OS
             0 MiB allocation reported by mallinfo(arena+hblkhd)
        211573 MiB available memory on the node where the printing process lives
------------------
     ethr =  5.67E-10,  avg # of iterations =  4.7

     total cpu time spent up to now is    45493.1 secs

     total energy              =   -7140.42519581 Ry
     estimated scf accuracy    <       0.00000108 Ry

     total magnetization       =    -0.00    -0.00     0.00 Bohr mag/cell
     absolute magnetization    =    10.12 Bohr mag/cell

     iteration # 77     ecut=    60.00 Ry     beta= 0.40
     Davidson diagonalization with overlap

---- Real-time Memory Report at c_bands before calling an iterative solver
           429 MiB given to the printing process from OS
             0 MiB allocation reported by mallinfo(arena+hblkhd)
        211676 MiB available memory on the node where the printing process lives
------------------
     ethr =  5.67E-10,  avg # of iterations =  8.0

     total cpu time spent up to now is    46632.9 secs

     total energy              =   -7140.42523346 Ry
     estimated scf accuracy    <       0.00000120 Ry

     total magnetization       =     0.00     0.00     0.00 Bohr mag/cell
     absolute magnetization    =    10.11 Bohr mag/cell

     iteration # 78     ecut=    60.00 Ry     beta= 0.40
     Davidson diagonalization with overlap

---- Real-time Memory Report at c_bands before calling an iterative solver
           429 MiB given to the printing process from OS
             0 MiB allocation reported by mallinfo(arena+hblkhd)
        211613 MiB available memory on the node where the printing process lives
------------------
     ethr =  5.67E-10,  avg # of iterations =  3.5

     total cpu time spent up to now is    47410.2 secs

     total energy              =   -7140.42515111 Ry
     estimated scf accuracy    <       0.00000097 Ry

     total magnetization       =     0.00     0.00     0.00 Bohr mag/cell
     absolute magnetization    =    10.11 Bohr mag/cell

     iteration # 79     ecut=    60.00 Ry     beta= 0.40
     Davidson diagonalization with overlap

---- Real-time Memory Report at c_bands before calling an iterative solver
           429 MiB given to the printing process from OS
             0 MiB allocation reported by mallinfo(arena+hblkhd)
        211607 MiB available memory on the node where the printing process lives
------------------
     ethr =  5.67E-10,  avg # of iterations =  7.6
     Minimization algorithm failed to find Fermi energy: reverting to bisection
     Possible cause: smearing is larger than the electronic band-gap.

     total cpu time spent up to now is    48507.1 secs

     total energy              =   -7140.42520324 Ry
     estimated scf accuracy    <       0.00000086 Ry

     total magnetization       =    -0.00    -0.00     0.00 Bohr mag/cell
     absolute magnetization    =    10.10 Bohr mag/cell

     iteration # 80     ecut=    60.00 Ry     beta= 0.40
     Davidson diagonalization with overlap

---- Real-time Memory Report at c_bands before calling an iterative solver
           429 MiB given to the printing process from OS
             0 MiB allocation reported by mallinfo(arena+hblkhd)
        211548 MiB available memory on the node where the printing process lives
------------------
     ethr =  5.67E-10,  avg # of iterations =  5.1

     total cpu time spent up to now is    49371.6 secs

     total energy              =   -7140.42520443 Ry
     estimated scf accuracy    <       0.00000079 Ry

     total magnetization       =     0.00    -0.00     0.00 Bohr mag/cell
     absolute magnetization    =    10.10 Bohr mag/cell

     End of self-consistent calculation

     convergence NOT achieved after  80 iterations: stopping

     Writing config to output data dir ./tmp/MnBi2Te4.save/
 
     init_run     :     40.51s CPU     41.44s WALL (       1 calls)
     electrons    :  47084.32s CPU  49335.56s WALL (       1 calls)

     Called by init_run:
     wfcinit      :     38.68s CPU     39.29s WALL (       1 calls)
     wfcinit:atom :      0.01s CPU      0.01s WALL (      13 calls)
     wfcinit:wfcr :     38.62s CPU     39.15s WALL (      13 calls)
     potinit      :      0.86s CPU      1.05s WALL (       1 calls)
     hinit0       :      0.39s CPU      0.44s WALL (       1 calls)

     Called by electrons:
     c_bands      :  39678.77s CPU  41611.89s WALL (      80 calls)
     sum_band     :   7137.75s CPU   7427.93s WALL (      80 calls)
     v_of_rho     :     50.87s CPU     59.97s WALL (      81 calls)
     v_h          :      4.82s CPU      5.19s WALL (      81 calls)
     v_xc         :     46.05s CPU     54.77s WALL (      81 calls)
     newd         :     48.49s CPU     55.57s WALL (      81 calls)
     PAW_pot      :     60.97s CPU     67.10s WALL (      81 calls)
     mix_rho      :     81.83s CPU     85.68s WALL (      80 calls)

     Called by c_bands:
     init_us_2    :      2.13s CPU      2.33s WALL (    2093 calls)
     init_us_2:cp :      2.12s CPU      2.32s WALL (    2093 calls)
     cegterg      :  39619.19s CPU  41548.90s WALL (    1040 calls)

     Called by sum_band:
     sum_band:wei :      0.28s CPU      0.28s WALL (      80 calls)
     sum_band:loo :   6982.92s CPU   7261.59s WALL (      80 calls)
     sum_band:buf :      0.62s CPU      1.01s WALL (    1040 calls)
     sum_band:ini :      1.06s CPU      1.16s WALL (    1040 calls)
     sum_band:cal :    120.19s CPU    134.85s WALL (    1040 calls)
     sum_band:bec :     15.15s CPU     15.99s WALL (    1040 calls)
     addusdens    :     32.92s CPU     38.88s WALL (      80 calls)
                                        0.00s GPU  (      80 calls)
     addusd:skk   :      0.03s CPU      0.04s WALL (     320 calls)
                                        0.00s GPU  (     320 calls)

     Called by *egterg:
     cdiaghg      :    178.70s CPU    193.32s WALL (    5796 calls)
     cegterg:over :    322.52s CPU    350.75s WALL (    4756 calls)
     cegterg:upda :    209.46s CPU    223.71s WALL (    4756 calls)
     cegterg:last :    280.00s CPU    301.85s WALL (    2797 calls)
     cdiaghg:chol :     43.90s CPU     46.37s WALL (    5796 calls)
     cdiaghg:inve :      2.99s CPU      3.26s WALL (    5796 calls)
     cdiaghg:para :     31.15s CPU     35.62s WALL (   11592 calls)
     h_psi        :  38394.15s CPU  40225.45s WALL (    5809 calls)
     s_psi        :     68.45s CPU     72.50s WALL (    5809 calls)
     g_psi        :      0.75s CPU      0.76s WALL (    4756 calls)

     Called by h_psi:
     h_psi:calbec :    402.89s CPU    452.69s WALL (    5809 calls)
     vloc_psi     :  37924.85s CPU  39702.18s WALL (    5809 calls)
     add_vuspsi   :     64.45s CPU     68.22s WALL (    5809 calls)

     General routines
     calbec       :    523.02s CPU    587.49s WALL (    6849 calls)
     fft          :     40.17s CPU     45.21s WALL (    2347 calls)
     ffts         :      5.59s CPU      6.27s WALL (     320 calls)
     fftw         :  41270.72s CPU  43247.09s WALL ( 2482876 calls)
     davcio       :      0.00s CPU      0.14s WALL (      31 calls)
 
     Parallel routines

     PAW routines
     PAW_pot      :     60.97s CPU     67.10s WALL (      81 calls)
     PAW_symme    :      7.01s CPU      7.48s WALL (     161 calls)
 
     PWSCF        :     13h 5m CPU     13h42m WALL

 
   This run was terminated on:   5:10:51  28Jun2025            

=------------------------------------------------------------------------------=
   JOB DONE.
=------------------------------------------------------------------------------=
