
     Program PWSCF v.7.2 starts on  1Jul2025 at  1:15:19 

     This program is part of the open-source Quantum ESPRESSO suite
     for quantum simulation of materials; please cite
         "P. Giannozzi et al., J. Phys.:Condens. Matter 21 395502 (2009);
         "P. Giannozzi et al., J. Phys.:Condens. Matter 29 465901 (2017);
         "P. Giannozzi et al., J. Chem. Phys. 152 154105 (2020);
          URL http://www.quantum-espresso.org", 
     in publications or presentations arising from this work. More details at
     http://www.quantum-espresso.org/quote

     Parallel version (MPI), running on    64 processors

     MPI processes distributed on     1 nodes
     220463 MiB available memory on the printing compute node when the environment starts
 
     Reading input from MnBi2Te4.bands.in

     Current dimensions of program PWSCF are:
     Max number of different atomic species (ntypx) = 10
     Max number of k-points (npk) =  40000
     Max angular momentum in pseudopotentials (lmaxx) =  4

     Atomic positions and unit cell read from directory:
     ./tmp/MnBi2Te4.save/
     Atomic positions from file used, from input discarded
 
     file Mn.rel-pbe-spn-kjpaw_psl.0.3.1.UPF: wavefunction(s)  3P 3P 3D renormalized
     file Mn.rel-pbe-spn-kjpaw_psl.0.3.1.UPF: wavefunction(s)  3P 3P 3D renormalized
     file Bi.rel-pbe-dn-kjpaw_psl.1.0.0.UPF: wavefunction(s)  6P 6P 5D 5D renormalized
     file Te.rel-pbe-n-kjpaw_psl.1.0.0.UPF: wavefunction(s)  5S 5P 5P renormalized

     Fixed quantization axis for GGA:     0.000000    0.000000    1.000000
 
     R & G space division:  proc/nbgrp/npool/nimage =      64
     Subspace diagonalization in iterative solution of the eigenvalue problem:
     one sub-group per band group will be used
     scalapack distributed-memory algorithm (size of sub-group:  2*  2 procs)

 
     Parallelization info
     --------------------
     sticks:   dense  smooth     PW     G-vecs:    dense   smooth      PW
     Min         126     126     39                 2936     2936     509
     Max         127     127     40                 2938     2938     510
     Sum        8079    8079   2519               187971   187971   32619
 
     Using Slab Decomposition
 


     bravais-lattice index     =            5
     lattice parameter (alat)  =      51.7756  a.u.
     unit-cell volume          =    2994.5593 (a.u.)^3
     number of atoms/cell      =           14
     number of atomic types    =            4
     number of electrons       =       138.00
     number of Kohn-Sham states=          200
     kinetic-energy cutoff     =      60.0000  Ry
     charge density cutoff     =     240.0000  Ry
     Exchange-correlation= SLA  PW   PBX  PBC
                           (   1   4   3   4   0   0   0)
     Noncollinear calculation with spin-orbit


     celldm(1)=  51.775623  celldm(2)=   0.000000  celldm(3)=   0.000000
     celldm(4)=   0.987491  celldm(5)=   0.000000  celldm(6)=   0.000000

     crystal axes: (cart. coord. in units of alat)
               a(1) = (   0.079085  -0.045660   0.995822 )  
               a(2) = (   0.000000   0.091319   0.995822 )  
               a(3) = (  -0.079085  -0.045660   0.995822 )  

     reciprocal axes: (cart. coord. in units 2 pi/alat)
               b(1) = (  6.322337 -3.650203  0.334732 )  
               b(2) = (  0.000000  7.300406  0.334732 )  
               b(3) = ( -6.322337 -3.650203  0.334732 )  


     PseudoPot. # 1 for Mn read from file:
     ./Mn.rel-pbe-spn-kjpaw_psl.0.3.1.UPF
     MD5 check sum: dfba1c7561257014502ac20495784078
     Pseudo is Projector augmented-wave + core cor, Zval = 15.0
     Generated using &quot;atomic&quot; code by A. Dal Corso  v.6.2.2
     Shape of augmentation charge: PSQ
     Using radial grid of 1187 points, 10 beta functions with: 
                l(1) =   0
                l(2) =   0
                l(3) =   1
                l(4) =   1
                l(5) =   1
                l(6) =   1
                l(7) =   2
                l(8) =   2
                l(9) =   2
               l(10) =   2
     Q(r) pseudized with 0 coefficients 


     PseudoPot. # 2 for Mn read from file:
     ./Mn.rel-pbe-spn-kjpaw_psl.0.3.1.UPF
     MD5 check sum: dfba1c7561257014502ac20495784078
     Pseudo is Projector augmented-wave + core cor, Zval = 15.0
     Generated using &quot;atomic&quot; code by A. Dal Corso  v.6.2.2
     Shape of augmentation charge: PSQ
     Using radial grid of 1187 points, 10 beta functions with: 
                l(1) =   0
                l(2) =   0
                l(3) =   1
                l(4) =   1
                l(5) =   1
                l(6) =   1
                l(7) =   2
                l(8) =   2
                l(9) =   2
               l(10) =   2
     Q(r) pseudized with 0 coefficients 


     PseudoPot. # 3 for Bi read from file:
     ./Bi.rel-pbe-dn-kjpaw_psl.1.0.0.UPF
     MD5 check sum: 8010b987e9fb97324c8de82fb26a3f7d
     Pseudo is Projector augmented-wave + core cor, Zval = 15.0
     Generated using &quot;atomic&quot; code by A. Dal Corso  v.6.2.2
     Shape of augmentation charge: PSQ
     Using radial grid of 1283 points, 10 beta functions with: 
                l(1) =   0
                l(2) =   0
                l(3) =   1
                l(4) =   1
                l(5) =   1
                l(6) =   1
                l(7) =   2
                l(8) =   2
                l(9) =   2
               l(10) =   2
     Q(r) pseudized with 0 coefficients 


     PseudoPot. # 4 for Te read from file:
     ./Te.rel-pbe-n-kjpaw_psl.1.0.0.UPF
     MD5 check sum: 8399411061dffbb19b40ade5049f5146
     Pseudo is Projector augmented-wave + core cor, Zval =  6.0
     Generated using &quot;atomic&quot; code by A. Dal Corso  v.6.3
     Shape of augmentation charge: PSQ
     Using radial grid of 1245 points, 10 beta functions with: 
                l(1) =   0
                l(2) =   0
                l(3) =   1
                l(4) =   1
                l(5) =   1
                l(6) =   1
                l(7) =   2
                l(8) =   2
                l(9) =   2
               l(10) =   2
     Q(r) pseudized with 0 coefficients 


     atomic species   valence    mass     pseudopotential
        Mn1           15.00    54.93800     Mn( 1.00)
        Mn2           15.00    54.93800     Mn( 1.00)
        Bi            15.00   208.98000     Bi( 1.00)
        Te             6.00   127.60300     Te( 1.00)

     12 Sym. Ops., with inversion, found


                                    s                        frac. trans.

      isym =  1     identity                                     

 Time Reversal            0
 cryst.   s( 1) = (     1          0          0      )
                  (     0          1          0      )
                  (     0          0          1      )

 cart.    s( 1) = (  1.0000000  0.0000000  0.0000000 )
                  (  0.0000000  1.0000000  0.0000000 )
                  (  0.0000000  0.0000000  1.0000000 )


      isym =  2     180 deg rotation - cart. axis [1,0,0]        

 Time Reversal            1
 cryst.   s( 2) = (     0          0         -1      )
                  (     0         -1          0      )
                  (    -1          0          0      )

 cart.    s( 2) = (  1.0000000  0.0000000  0.0000000 )
                  (  0.0000000 -1.0000000  0.0000000 )
                  (  0.0000000  0.0000000 -1.0000000 )


      isym =  3     120 deg rotation - cryst. axis [0,0,1]       

 Time Reversal            0
 cryst.   s( 3) = (     0          1          0      )
                  (     0          0          1      )
                  (     1          0          0      )

 cart.    s( 3) = ( -0.5000000 -0.8660254 -0.0000000 )
                  (  0.8660254 -0.5000000 -0.0000000 )
                  (  0.0000000  0.0000000  1.0000000 )


      isym =  4     120 deg rotation - cryst. axis [0,0,-1]      

 Time Reversal            0
 cryst.   s( 4) = (     0          0          1      )
                  (     1          0          0      )
                  (     0          1          0      )

 cart.    s( 4) = ( -0.5000000  0.8660254  0.0000000 )
                  ( -0.8660254 -0.5000000 -0.0000000 )
                  (  0.0000000  0.0000000  1.0000000 )


      isym =  5     180 deg rotation - cryst. axis [0,1,0]       

 Time Reversal            1
 cryst.   s( 5) = (     0         -1          0      )
                  (    -1          0          0      )
                  (     0          0         -1      )

 cart.    s( 5) = ( -0.5000000 -0.8660254 -0.0000000 )
                  ( -0.8660254  0.5000000  0.0000000 )
                  (  0.0000000  0.0000000 -1.0000000 )


      isym =  6     180 deg rotation - cryst. axis [1,1,0]       

 Time Reversal            1
 cryst.   s( 6) = (    -1          0          0      )
                  (     0          0         -1      )
                  (     0         -1          0      )

 cart.    s( 6) = ( -0.5000000  0.8660254  0.0000000 )
                  (  0.8660254  0.5000000  0.0000000 )
                  (  0.0000000  0.0000000 -1.0000000 )


      isym =  7     inversion                                    

 Time Reversal            0
 cryst.   s( 7) = (    -1          0          0      )
                  (     0         -1          0      )
                  (     0          0         -1      )

 cart.    s( 7) = ( -1.0000000  0.0000000  0.0000000 )
                  (  0.0000000 -1.0000000  0.0000000 )
                  (  0.0000000  0.0000000 -1.0000000 )


      isym =  8     inv. 180 deg rotation - cart. axis [1,0,0]   

 Time Reversal            1
 cryst.   s( 8) = (     0          0          1      )
                  (     0          1          0      )
                  (     1          0          0      )

 cart.    s( 8) = ( -1.0000000  0.0000000  0.0000000 )
                  (  0.0000000  1.0000000  0.0000000 )
                  (  0.0000000  0.0000000  1.0000000 )


      isym =  9     inv. 120 deg rotation - cryst. axis [0,0,1]  

 Time Reversal            0
 cryst.   s( 9) = (     0         -1          0      )
                  (     0          0         -1      )
                  (    -1          0          0      )

 cart.    s( 9) = (  0.5000000  0.8660254  0.0000000 )
                  ( -0.8660254  0.5000000  0.0000000 )
                  (  0.0000000  0.0000000 -1.0000000 )


      isym = 10     inv. 120 deg rotation - cryst. axis [0,0,-1] 

 Time Reversal            0
 cryst.   s(10) = (     0          0         -1      )
                  (    -1          0          0      )
                  (     0         -1          0      )

 cart.    s(10) = (  0.5000000 -0.8660254 -0.0000000 )
                  (  0.8660254  0.5000000  0.0000000 )
                  (  0.0000000  0.0000000 -1.0000000 )


      isym = 11     inv. 180 deg rotation - cryst. axis [0,1,0]  

 Time Reversal            1
 cryst.   s(11) = (     0          1          0      )
                  (     1          0          0      )
                  (     0          0          1      )

 cart.    s(11) = (  0.5000000  0.8660254  0.0000000 )
                  (  0.8660254 -0.5000000 -0.0000000 )
                  (  0.0000000  0.0000000  1.0000000 )


      isym = 12     inv. 180 deg rotation - cryst. axis [1,1,0]  

 Time Reversal            1
 cryst.   s(12) = (     1          0          0      )
                  (     0          0          1      )
                  (     0          1          0      )

 cart.    s(12) = (  0.5000000 -0.8660254 -0.0000000 )
                  ( -0.8660254 -0.5000000 -0.0000000 )
                  (  0.0000000  0.0000000  1.0000000 )


     the magnetic double point group is D_3d (-3m)  [S_6 (-3)   ]
     using the double point group S_6 (-3)   
     there are 12 classes and  6 irreducible representations
     the character table:

       E     -E    C3    -C3   C3^2  -C3^2  i    -i    S6^5  -S6^5 S6    -S6  
                                                                              
G_4+   1.00 -1.00  0.50 -0.50  0.50 -0.50  1.00 -1.00  0.50 -0.50  0.50 -0.50
G_5+   1.00 -1.00  0.50 -0.50  0.50 -0.50  1.00 -1.00  0.50 -0.50  0.50 -0.50
G_6+   1.00 -1.00 -1.00  1.00 -1.00  1.00  1.00 -1.00 -1.00  1.00 -1.00  1.00
G_4-   1.00 -1.00  0.50 -0.50  0.50 -0.50 -1.00  1.00 -0.50  0.50 -0.50  0.50
G_5-   1.00 -1.00  0.50 -0.50  0.50 -0.50 -1.00  1.00 -0.50  0.50 -0.50  0.50
G_6-   1.00 -1.00 -1.00  1.00 -1.00  1.00 -1.00  1.00  1.00 -1.00  1.00 -1.00

     imaginary part

       E     -E    C3    -C3   C3^2  -C3^2  i    -i    S6^5  -S6^5 S6    -S6  
                                                                              
G_4+   0.00  0.00  0.87 -0.87 -0.87  0.87  0.00  0.00  0.87 -0.87 -0.87  0.87
G_5+   0.00  0.00 -0.87  0.87  0.87 -0.87  0.00  0.00 -0.87  0.87  0.87 -0.87
G_6+   0.00  0.00  0.00  0.00  0.00  0.00  0.00  0.00  0.00  0.00  0.00  0.00
G_4-   0.00  0.00  0.87 -0.87 -0.87  0.87  0.00  0.00 -0.87  0.87  0.87 -0.87
G_5-   0.00  0.00 -0.87  0.87  0.87 -0.87  0.00  0.00  0.87 -0.87 -0.87  0.87
G_6-   0.00  0.00  0.00  0.00  0.00  0.00  0.00  0.00  0.00  0.00  0.00  0.00

     the symmetry operations in each class and the name of the first element:

     E             1
          identity                                               
     -E           -1
          identity E                                             
     C3            2
          120 deg rotation - cryst. axis [0,0,1]                 
     -C3          -2
          120 deg rotation - cryst. axis [0,0,1] E               
     C3^2          3
          120 deg rotation - cryst. axis [0,0,-1]                
     -C3^2        -3
          120 deg rotation - cryst. axis [0,0,-1] E              
      i            4
          inversion                                              
     -i           -4
          inversion E                                            
     S6^5          5
          inv. 120 deg rotation - cryst. axis [0,0,1]            
     -S6^5        -5
          inv. 120 deg rotation - cryst. axis [0,0,1] E          
     S6            6
          inv. 120 deg rotation - cryst. axis [0,0,-1]           
     -S6          -6
          inv. 120 deg rotation - cryst. axis [0,0,-1] E         

   Cartesian axes

     site n.     atom                  positions (alat units)
         1           Mn1 tau(   1) = (   0.0000000   0.0000000   0.0000000  )
         2           Mn2 tau(   2) = (   0.0000000  -0.0000000   1.4937325  )
         3           Bi  tau(   3) = (   0.0000000  -0.0000000   0.6346869  )
         4           Bi  tau(   4) = (   0.0000000  -0.0000000   2.1284195  )
         5           Bi  tau(   5) = (   0.0000000  -0.0000000   0.8590456  )
         6           Bi  tau(   6) = (   0.0000000  -0.0000000   2.3527781  )
         7           Te  tau(   7) = (   0.0000000  -0.0000000   0.1992042  )
         8           Te  tau(   8) = (   0.0000000  -0.0000000   1.6929367  )
         9           Te  tau(   9) = (   0.0000000  -0.0000000   1.2945284  )
        10           Te  tau(  10) = (   0.0000000  -0.0000000   2.7882609  )
        11           Te  tau(  11) = (   0.0000000  -0.0000000   0.4392470  )
        12           Te  tau(  12) = (   0.0000000  -0.0000000   1.9329795  )
        13           Te  tau(  13) = (   0.0000000  -0.0000000   1.0544855  )
        14           Te  tau(  14) = (   0.0000000  -0.0000000   2.5482181  )

   Crystallographic axes

     site n.     atom                  positions (cryst. coord.)
         1           Mn1 tau(   1) = (  0.0000000  0.0000000  0.0000000  )
         2           Mn2 tau(   2) = (  0.5000000  0.5000000  0.5000000  )
         3           Bi  tau(   3) = (  0.2124500  0.2124500  0.2124500  )
         4           Bi  tau(   4) = (  0.7124500  0.7124500  0.7124500  )
         5           Bi  tau(   5) = (  0.2875500  0.2875500  0.2875500  )
         6           Bi  tau(   6) = (  0.7875500  0.7875500  0.7875500  )
         7           Te  tau(   7) = (  0.0666800  0.0666800  0.0666800  )
         8           Te  tau(   8) = (  0.5666800  0.5666800  0.5666800  )
         9           Te  tau(   9) = (  0.4333200  0.4333200  0.4333200  )
        10           Te  tau(  10) = (  0.9333200  0.9333200  0.9333200  )
        11           Te  tau(  11) = (  0.1470300  0.1470300  0.1470300  )
        12           Te  tau(  12) = (  0.6470300  0.6470300  0.6470300  )
        13           Te  tau(  13) = (  0.3529700  0.3529700  0.3529700  )
        14           Te  tau(  14) = (  0.8529700  0.8529700  0.8529700  )

     number of k points=   151  Marzari-Vanderbilt smearing, width (Ry)=  0.0200
                       cart. coord. in units 2pi/alat
        k(    1) = (   0.0000000   0.0000000   0.0000000), wk =   0.0066225
        k(    2) = (   0.1264467   0.0730041   0.0033473), wk =   0.0066225
        k(    3) = (   0.2528935   0.1460081   0.0066946), wk =   0.0066225
        k(    4) = (   0.3793402   0.2190122   0.0100420), wk =   0.0066225
        k(    5) = (   0.5057870   0.2920162   0.0133893), wk =   0.0066225
        k(    6) = (   0.6322337   0.3650203   0.0167366), wk =   0.0066225
        k(    7) = (   0.7586805   0.4380244   0.0200839), wk =   0.0066225
        k(    8) = (   0.8851272   0.5110284   0.0234312), wk =   0.0066225
        k(    9) = (   1.0115739   0.5840325   0.0267786), wk =   0.0066225
        k(   10) = (   1.1380207   0.6570365   0.0301259), wk =   0.0066225
        k(   11) = (   1.2644674   0.7300406   0.0334732), wk =   0.0066225
        k(   12) = (   1.3909142   0.8030447   0.0368205), wk =   0.0066225
        k(   13) = (   1.5173609   0.8760487   0.0401678), wk =   0.0066225
        k(   14) = (   1.6438076   0.9490528   0.0435152), wk =   0.0066225
        k(   15) = (   1.7702544   1.0220568   0.0468625), wk =   0.0066225
        k(   16) = (   1.8967011   1.0950609   0.0502098), wk =   0.0066225
        k(   17) = (   2.0231479   1.1680650   0.0535571), wk =   0.0066225
        k(   18) = (   2.1495946   1.2410690   0.0569044), wk =   0.0066225
        k(   19) = (   2.2760414   1.3140731   0.0602518), wk =   0.0066225
        k(   20) = (   2.4024881   1.3870772   0.0635991), wk =   0.0066225
        k(   21) = (   2.5289348   1.4600812   0.0669464), wk =   0.0066225
        k(   22) = (   2.6553816   1.5330853   0.0702937), wk =   0.0066225
        k(   23) = (   2.7818283   1.6060893   0.0736410), wk =   0.0066225
        k(   24) = (   2.9082751   1.6790934   0.0769883), wk =   0.0066225
        k(   25) = (   3.0347218   1.7520975   0.0803357), wk =   0.0066225
        k(   26) = (   3.1611686   1.8251015   0.0836830), wk =   0.0066225
        k(   27) = (   3.2876153   1.8981056   0.0870303), wk =   0.0066225
        k(   28) = (   3.4140620   1.9711096   0.0903776), wk =   0.0066225
        k(   29) = (   3.5405088   2.0441137   0.0937249), wk =   0.0066225
        k(   30) = (   3.6669555   2.1171178   0.0970723), wk =   0.0066225
        k(   31) = (   3.7934023   2.1901218   0.1004196), wk =   0.0066225
        k(   32) = (   3.9198490   2.2631259   0.1037669), wk =   0.0066225
        k(   33) = (   4.0462957   2.3361299   0.1071142), wk =   0.0066225
        k(   34) = (   4.1727425   2.4091340   0.1104615), wk =   0.0066225
        k(   35) = (   4.2991892   2.4821381   0.1138089), wk =   0.0066225
        k(   36) = (   4.4256360   2.5551421   0.1171562), wk =   0.0066225
        k(   37) = (   4.5520827   2.6281462   0.1205035), wk =   0.0066225
        k(   38) = (   4.6785295   2.7011502   0.1238508), wk =   0.0066225
        k(   39) = (   4.8049762   2.7741543   0.1271981), wk =   0.0066225
        k(   40) = (   4.9314229   2.8471584   0.1305455), wk =   0.0066225
        k(   41) = (   5.0578697   2.9201624   0.1338928), wk =   0.0066225
        k(   42) = (   5.1843164   2.9931665   0.1372401), wk =   0.0066225
        k(   43) = (   5.3107632   3.0661705   0.1405874), wk =   0.0066225
        k(   44) = (   5.4372099   3.1391746   0.1439347), wk =   0.0066225
        k(   45) = (   5.5636567   3.2121787   0.1472821), wk =   0.0066225
        k(   46) = (   5.6901034   3.2851827   0.1506294), wk =   0.0066225
        k(   47) = (   5.8165501   3.3581868   0.1539767), wk =   0.0066225
        k(   48) = (   5.9429969   3.4311908   0.1573240), wk =   0.0066225
        k(   49) = (   6.0694436   3.5041949   0.1606713), wk =   0.0066225
        k(   50) = (   6.1958904   3.5771990   0.1640187), wk =   0.0066225
        k(   51) = (   6.3223371   3.6502030   0.1673660), wk =   0.0066225
        k(   52) = (   6.2591137   3.6867051   0.1640187), wk =   0.0066225
        k(   53) = (   6.1958904   3.7232071   0.1606713), wk =   0.0066225
        k(   54) = (   6.1326670   3.7597091   0.1573240), wk =   0.0066225
        k(   55) = (   6.0694436   3.7962112   0.1539767), wk =   0.0066225
        k(   56) = (   6.0062203   3.8327132   0.1506294), wk =   0.0066225
        k(   57) = (   5.9429969   3.8692152   0.1472821), wk =   0.0066225
        k(   58) = (   5.8797735   3.9057172   0.1439347), wk =   0.0066225
        k(   59) = (   5.8165501   3.9422193   0.1405874), wk =   0.0066225
        k(   60) = (   5.7533268   3.9787213   0.1372401), wk =   0.0066225
        k(   61) = (   5.6901034   4.0152233   0.1338928), wk =   0.0066225
        k(   62) = (   5.6268800   4.0517254   0.1305455), wk =   0.0066225
        k(   63) = (   5.5636567   4.0882274   0.1271981), wk =   0.0066225
        k(   64) = (   5.5004333   4.1247294   0.1238508), wk =   0.0066225
        k(   65) = (   5.4372099   4.1612315   0.1205035), wk =   0.0066225
        k(   66) = (   5.3739865   4.1977335   0.1171562), wk =   0.0066225
        k(   67) = (   5.3107632   4.2342355   0.1138089), wk =   0.0066225
        k(   68) = (   5.2475398   4.2707375   0.1104615), wk =   0.0066225
        k(   69) = (   5.1843164   4.3072396   0.1071142), wk =   0.0066225
        k(   70) = (   5.1210931   4.3437416   0.1037669), wk =   0.0066225
        k(   71) = (   5.0578697   4.3802436   0.1004196), wk =   0.0066225
        k(   72) = (   4.9946463   4.4167457   0.0970723), wk =   0.0066225
        k(   73) = (   4.9314229   4.4532477   0.0937249), wk =   0.0066225
        k(   74) = (   4.8681996   4.4897497   0.0903776), wk =   0.0066225
        k(   75) = (   4.8049762   4.5262518   0.0870303), wk =   0.0066225
        k(   76) = (   4.7417528   4.5627538   0.0836830), wk =   0.0066225
        k(   77) = (   4.6785295   4.5992558   0.0803357), wk =   0.0066225
        k(   78) = (   4.6153061   4.6357578   0.0769883), wk =   0.0066225
        k(   79) = (   4.5520827   4.6722599   0.0736410), wk =   0.0066225
        k(   80) = (   4.4888593   4.7087619   0.0702937), wk =   0.0066225
        k(   81) = (   4.4256360   4.7452639   0.0669464), wk =   0.0066225
        k(   82) = (   4.3624126   4.7817660   0.0635991), wk =   0.0066225
        k(   83) = (   4.2991892   4.8182680   0.0602518), wk =   0.0066225
        k(   84) = (   4.2359659   4.8547700   0.0569044), wk =   0.0066225
        k(   85) = (   4.1727425   4.8912721   0.0535571), wk =   0.0066225
        k(   86) = (   4.1095191   4.9277741   0.0502098), wk =   0.0066225
        k(   87) = (   4.0462957   4.9642761   0.0468625), wk =   0.0066225
        k(   88) = (   3.9830724   5.0007782   0.0435152), wk =   0.0066225
        k(   89) = (   3.9198490   5.0372802   0.0401678), wk =   0.0066225
        k(   90) = (   3.8566256   5.0737822   0.0368205), wk =   0.0066225
        k(   91) = (   3.7934023   5.1102842   0.0334732), wk =   0.0066225
        k(   92) = (   3.7301789   5.1467863   0.0301259), wk =   0.0066225
        k(   93) = (   3.6669555   5.1832883   0.0267786), wk =   0.0066225
        k(   94) = (   3.6037322   5.2197903   0.0234312), wk =   0.0066225
        k(   95) = (   3.5405088   5.2562924   0.0200839), wk =   0.0066225
        k(   96) = (   3.4772854   5.2927944   0.0167366), wk =   0.0066225
        k(   97) = (   3.4140620   5.3292964   0.0133893), wk =   0.0066225
        k(   98) = (   3.3508387   5.3657985   0.0100420), wk =   0.0066225
        k(   99) = (   3.2876153   5.4023005   0.0066946), wk =   0.0066225
        k(  100) = (   3.2243919   5.4388025   0.0033473), wk =   0.0066225
        k(  101) = (   3.1611686   5.4753045   0.0000000), wk =   0.0066225
        k(  102) = (   3.0979452   5.3657985   0.0000000), wk =   0.0066225
        k(  103) = (   3.0347218   5.2562924   0.0000000), wk =   0.0066225
        k(  104) = (   2.9714984   5.1467863   0.0000000), wk =   0.0066225
        k(  105) = (   2.9082751   5.0372802   0.0000000), wk =   0.0066225
        k(  106) = (   2.8450517   4.9277741   0.0000000), wk =   0.0066225
        k(  107) = (   2.7818283   4.8182680   0.0000000), wk =   0.0066225
        k(  108) = (   2.7186050   4.7087619   0.0000000), wk =   0.0066225
        k(  109) = (   2.6553816   4.5992558   0.0000000), wk =   0.0066225
        k(  110) = (   2.5921582   4.4897497   0.0000000), wk =   0.0066225
        k(  111) = (   2.5289348   4.3802436   0.0000000), wk =   0.0066225
        k(  112) = (   2.4657115   4.2707375   0.0000000), wk =   0.0066225
        k(  113) = (   2.4024881   4.1612315   0.0000000), wk =   0.0066225
        k(  114) = (   2.3392647   4.0517254   0.0000000), wk =   0.0066225
        k(  115) = (   2.2760414   3.9422193   0.0000000), wk =   0.0066225
        k(  116) = (   2.2128180   3.8327132   0.0000000), wk =   0.0066225
        k(  117) = (   2.1495946   3.7232071   0.0000000), wk =   0.0066225
        k(  118) = (   2.0863712   3.6137010   0.0000000), wk =   0.0066225
        k(  119) = (   2.0231479   3.5041949   0.0000000), wk =   0.0066225
        k(  120) = (   1.9599245   3.3946888   0.0000000), wk =   0.0066225
        k(  121) = (   1.8967011   3.2851827   0.0000000), wk =   0.0066225
        k(  122) = (   1.8334778   3.1756766   0.0000000), wk =   0.0066225
        k(  123) = (   1.7702544   3.0661705   0.0000000), wk =   0.0066225
        k(  124) = (   1.7070310   2.9566645   0.0000000), wk =   0.0066225
        k(  125) = (   1.6438076   2.8471584   0.0000000), wk =   0.0066225
        k(  126) = (   1.5805843   2.7376523   0.0000000), wk =   0.0066225
        k(  127) = (   1.5173609   2.6281462   0.0000000), wk =   0.0066225
        k(  128) = (   1.4541375   2.5186401   0.0000000), wk =   0.0066225
        k(  129) = (   1.3909142   2.4091340   0.0000000), wk =   0.0066225
        k(  130) = (   1.3276908   2.2996279   0.0000000), wk =   0.0066225
        k(  131) = (   1.2644674   2.1901218   0.0000000), wk =   0.0066225
        k(  132) = (   1.2012441   2.0806157   0.0000000), wk =   0.0066225
        k(  133) = (   1.1380207   1.9711096   0.0000000), wk =   0.0066225
        k(  134) = (   1.0747973   1.8616035   0.0000000), wk =   0.0066225
        k(  135) = (   1.0115739   1.7520975   0.0000000), wk =   0.0066225
        k(  136) = (   0.9483506   1.6425914   0.0000000), wk =   0.0066225
        k(  137) = (   0.8851272   1.5330853   0.0000000), wk =   0.0066225
        k(  138) = (   0.8219038   1.4235792   0.0000000), wk =   0.0066225
        k(  139) = (   0.7586805   1.3140731   0.0000000), wk =   0.0066225
        k(  140) = (   0.6954571   1.2045670   0.0000000), wk =   0.0066225
        k(  141) = (   0.6322337   1.0950609   0.0000000), wk =   0.0066225
        k(  142) = (   0.5690103   0.9855548   0.0000000), wk =   0.0066225
        k(  143) = (   0.5057870   0.8760487   0.0000000), wk =   0.0066225
        k(  144) = (   0.4425636   0.7665426   0.0000000), wk =   0.0066225
        k(  145) = (   0.3793402   0.6570365   0.0000000), wk =   0.0066225
        k(  146) = (   0.3161169   0.5475305   0.0000000), wk =   0.0066225
        k(  147) = (   0.2528935   0.4380244   0.0000000), wk =   0.0066225
        k(  148) = (   0.1896701   0.3285183   0.0000000), wk =   0.0066225
        k(  149) = (   0.1264467   0.2190122   0.0000000), wk =   0.0066225
        k(  150) = (   0.0632234   0.1095061   0.0000000), wk =   0.0066225
        k(  151) = (   0.0000000   0.0000000   0.0000000), wk =   0.0066225

                       cryst. coord.
        k(    1) = (   0.0000000   0.0000000   0.0000000), wk =   0.0066225
        k(    2) = (   0.0100000   0.0100000  -0.0100000), wk =   0.0066225
        k(    3) = (   0.0200000   0.0200000  -0.0200000), wk =   0.0066225
        k(    4) = (   0.0300000   0.0300000  -0.0300000), wk =   0.0066225
        k(    5) = (   0.0400000   0.0400000  -0.0400000), wk =   0.0066225
        k(    6) = (   0.0500000   0.0500000  -0.0500000), wk =   0.0066225
        k(    7) = (   0.0600000   0.0600000  -0.0600000), wk =   0.0066225
        k(    8) = (   0.0700000   0.0700000  -0.0700000), wk =   0.0066225
        k(    9) = (   0.0800000   0.0800000  -0.0800000), wk =   0.0066225
        k(   10) = (   0.0900000   0.0900000  -0.0900000), wk =   0.0066225
        k(   11) = (   0.1000000   0.1000000  -0.1000000), wk =   0.0066225
        k(   12) = (   0.1100000   0.1100000  -0.1100000), wk =   0.0066225
        k(   13) = (   0.1200000   0.1200000  -0.1200000), wk =   0.0066225
        k(   14) = (   0.1300000   0.1300000  -0.1300000), wk =   0.0066225
        k(   15) = (   0.1400000   0.1400000  -0.1400000), wk =   0.0066225
        k(   16) = (   0.1500000   0.1500000  -0.1500000), wk =   0.0066225
        k(   17) = (   0.1600000   0.1600000  -0.1600000), wk =   0.0066225
        k(   18) = (   0.1700000   0.1700000  -0.1700000), wk =   0.0066225
        k(   19) = (   0.1800000   0.1800000  -0.1800000), wk =   0.0066225
        k(   20) = (   0.1900000   0.1900000  -0.1900000), wk =   0.0066225
        k(   21) = (   0.2000000   0.2000000  -0.2000000), wk =   0.0066225
        k(   22) = (   0.2100000   0.2100000  -0.2100000), wk =   0.0066225
        k(   23) = (   0.2200000   0.2200000  -0.2200000), wk =   0.0066225
        k(   24) = (   0.2300000   0.2300000  -0.2300000), wk =   0.0066225
        k(   25) = (   0.2400000   0.2400000  -0.2400000), wk =   0.0066225
        k(   26) = (   0.2500000   0.2500000  -0.2500000), wk =   0.0066225
        k(   27) = (   0.2600000   0.2600000  -0.2600000), wk =   0.0066225
        k(   28) = (   0.2700000   0.2700000  -0.2700000), wk =   0.0066225
        k(   29) = (   0.2800000   0.2800000  -0.2800000), wk =   0.0066225
        k(   30) = (   0.2900000   0.2900000  -0.2900000), wk =   0.0066225
        k(   31) = (   0.3000000   0.3000000  -0.3000000), wk =   0.0066225
        k(   32) = (   0.3100000   0.3100000  -0.3100000), wk =   0.0066225
        k(   33) = (   0.3200000   0.3200000  -0.3200000), wk =   0.0066225
        k(   34) = (   0.3300000   0.3300000  -0.3300000), wk =   0.0066225
        k(   35) = (   0.3400000   0.3400000  -0.3400000), wk =   0.0066225
        k(   36) = (   0.3500000   0.3500000  -0.3500000), wk =   0.0066225
        k(   37) = (   0.3600000   0.3600000  -0.3600000), wk =   0.0066225
        k(   38) = (   0.3700000   0.3700000  -0.3700000), wk =   0.0066225
        k(   39) = (   0.3800000   0.3800000  -0.3800000), wk =   0.0066225
        k(   40) = (   0.3900000   0.3900000  -0.3900000), wk =   0.0066225
        k(   41) = (   0.4000000   0.4000000  -0.4000000), wk =   0.0066225
        k(   42) = (   0.4100000   0.4100000  -0.4100000), wk =   0.0066225
        k(   43) = (   0.4200000   0.4200000  -0.4200000), wk =   0.0066225
        k(   44) = (   0.4300000   0.4300000  -0.4300000), wk =   0.0066225
        k(   45) = (   0.4400000   0.4400000  -0.4400000), wk =   0.0066225
        k(   46) = (   0.4500000   0.4500000  -0.4500000), wk =   0.0066225
        k(   47) = (   0.4600000   0.4600000  -0.4600000), wk =   0.0066225
        k(   48) = (   0.4700000   0.4700000  -0.4700000), wk =   0.0066225
        k(   49) = (   0.4800000   0.4800000  -0.4800000), wk =   0.0066225
        k(   50) = (   0.4900000   0.4900000  -0.4900000), wk =   0.0066225
        k(   51) = (   0.5000000   0.5000000  -0.5000000), wk =   0.0066225
        k(   52) = (   0.4900000   0.5000000  -0.5000000), wk =   0.0066225
        k(   53) = (   0.4800000   0.5000000  -0.5000000), wk =   0.0066225
        k(   54) = (   0.4700000   0.5000000  -0.5000000), wk =   0.0066225
        k(   55) = (   0.4600000   0.5000000  -0.5000000), wk =   0.0066225
        k(   56) = (   0.4500000   0.5000000  -0.5000000), wk =   0.0066225
        k(   57) = (   0.4400000   0.5000000  -0.5000000), wk =   0.0066225
        k(   58) = (   0.4300000   0.5000000  -0.5000000), wk =   0.0066225
        k(   59) = (   0.4200000   0.5000000  -0.5000000), wk =   0.0066225
        k(   60) = (   0.4100000   0.5000000  -0.5000000), wk =   0.0066225
        k(   61) = (   0.4000000   0.5000000  -0.5000000), wk =   0.0066225
        k(   62) = (   0.3900000   0.5000000  -0.5000000), wk =   0.0066225
        k(   63) = (   0.3800000   0.5000000  -0.5000000), wk =   0.0066225
        k(   64) = (   0.3700000   0.5000000  -0.5000000), wk =   0.0066225
        k(   65) = (   0.3600000   0.5000000  -0.5000000), wk =   0.0066225
        k(   66) = (   0.3500000   0.5000000  -0.5000000), wk =   0.0066225
        k(   67) = (   0.3400000   0.5000000  -0.5000000), wk =   0.0066225
        k(   68) = (   0.3300000   0.5000000  -0.5000000), wk =   0.0066225
        k(   69) = (   0.3200000   0.5000000  -0.5000000), wk =   0.0066225
        k(   70) = (   0.3100000   0.5000000  -0.5000000), wk =   0.0066225
        k(   71) = (   0.3000000   0.5000000  -0.5000000), wk =   0.0066225
        k(   72) = (   0.2900000   0.5000000  -0.5000000), wk =   0.0066225
        k(   73) = (   0.2800000   0.5000000  -0.5000000), wk =   0.0066225
        k(   74) = (   0.2700000   0.5000000  -0.5000000), wk =   0.0066225
        k(   75) = (   0.2600000   0.5000000  -0.5000000), wk =   0.0066225
        k(   76) = (   0.2500000   0.5000000  -0.5000000), wk =   0.0066225
        k(   77) = (   0.2400000   0.5000000  -0.5000000), wk =   0.0066225
        k(   78) = (   0.2300000   0.5000000  -0.5000000), wk =   0.0066225
        k(   79) = (   0.2200000   0.5000000  -0.5000000), wk =   0.0066225
        k(   80) = (   0.2100000   0.5000000  -0.5000000), wk =   0.0066225
        k(   81) = (   0.2000000   0.5000000  -0.5000000), wk =   0.0066225
        k(   82) = (   0.1900000   0.5000000  -0.5000000), wk =   0.0066225
        k(   83) = (   0.1800000   0.5000000  -0.5000000), wk =   0.0066225
        k(   84) = (   0.1700000   0.5000000  -0.5000000), wk =   0.0066225
        k(   85) = (   0.1600000   0.5000000  -0.5000000), wk =   0.0066225
        k(   86) = (   0.1500000   0.5000000  -0.5000000), wk =   0.0066225
        k(   87) = (   0.1400000   0.5000000  -0.5000000), wk =   0.0066225
        k(   88) = (   0.1300000   0.5000000  -0.5000000), wk =   0.0066225
        k(   89) = (   0.1200000   0.5000000  -0.5000000), wk =   0.0066225
        k(   90) = (   0.1100000   0.5000000  -0.5000000), wk =   0.0066225
        k(   91) = (   0.1000000   0.5000000  -0.5000000), wk =   0.0066225
        k(   92) = (   0.0900000   0.5000000  -0.5000000), wk =   0.0066225
        k(   93) = (   0.0800000   0.5000000  -0.5000000), wk =   0.0066225
        k(   94) = (   0.0700000   0.5000000  -0.5000000), wk =   0.0066225
        k(   95) = (   0.0600000   0.5000000  -0.5000000), wk =   0.0066225
        k(   96) = (   0.0500000   0.5000000  -0.5000000), wk =   0.0066225
        k(   97) = (   0.0400000   0.5000000  -0.5000000), wk =   0.0066225
        k(   98) = (   0.0300000   0.5000000  -0.5000000), wk =   0.0066225
        k(   99) = (   0.0200000   0.5000000  -0.5000000), wk =   0.0066225
        k(  100) = (   0.0100000   0.5000000  -0.5000000), wk =   0.0066225
        k(  101) = (  -0.0000000   0.5000000  -0.5000000), wk =   0.0066225
        k(  102) = (   0.0000000   0.4900000  -0.4900000), wk =   0.0066225
        k(  103) = (  -0.0000000   0.4800000  -0.4800000), wk =   0.0066225
        k(  104) = (  -0.0000000   0.4700000  -0.4700000), wk =   0.0066225
        k(  105) = (   0.0000000   0.4600000  -0.4600000), wk =   0.0066225
        k(  106) = (   0.0000000   0.4500000  -0.4500000), wk =   0.0066225
        k(  107) = (   0.0000000   0.4400000  -0.4400000), wk =   0.0066225
        k(  108) = (  -0.0000000   0.4300000  -0.4300000), wk =   0.0066225
        k(  109) = (   0.0000000   0.4200000  -0.4200000), wk =   0.0066225
        k(  110) = (  -0.0000000   0.4100000  -0.4100000), wk =   0.0066225
        k(  111) = (   0.0000000   0.4000000  -0.4000000), wk =   0.0066225
        k(  112) = (   0.0000000   0.3900000  -0.3900000), wk =   0.0066225
        k(  113) = (   0.0000000   0.3800000  -0.3800000), wk =   0.0066225
        k(  114) = (   0.0000000   0.3700000  -0.3700000), wk =   0.0066225
        k(  115) = (   0.0000000   0.3600000  -0.3600000), wk =   0.0066225
        k(  116) = (   0.0000000   0.3500000  -0.3500000), wk =   0.0066225
        k(  117) = (  -0.0000000   0.3400000  -0.3400000), wk =   0.0066225
        k(  118) = (  -0.0000000   0.3300000  -0.3300000), wk =   0.0066225
        k(  119) = (  -0.0000000   0.3200000  -0.3200000), wk =   0.0066225
        k(  120) = (   0.0000000   0.3100000  -0.3100000), wk =   0.0066225
        k(  121) = (  -0.0000000   0.3000000  -0.3000000), wk =   0.0066225
        k(  122) = (  -0.0000000   0.2900000  -0.2900000), wk =   0.0066225
        k(  123) = (   0.0000000   0.2800000  -0.2800000), wk =   0.0066225
        k(  124) = (   0.0000000   0.2700000  -0.2700000), wk =   0.0066225
        k(  125) = (   0.0000000   0.2600000  -0.2600000), wk =   0.0066225
        k(  126) = (  -0.0000000   0.2500000  -0.2500000), wk =   0.0066225
        k(  127) = (  -0.0000000   0.2400000  -0.2400000), wk =   0.0066225
        k(  128) = (  -0.0000000   0.2300000  -0.2300000), wk =   0.0066225
        k(  129) = (   0.0000000   0.2200000  -0.2200000), wk =   0.0066225
        k(  130) = (  -0.0000000   0.2100000  -0.2100000), wk =   0.0066225
        k(  131) = (   0.0000000   0.2000000  -0.2000000), wk =   0.0066225
        k(  132) = (   0.0000000   0.1900000  -0.1900000), wk =   0.0066225
        k(  133) = (   0.0000000   0.1800000  -0.1800000), wk =   0.0066225
        k(  134) = (  -0.0000000   0.1700000  -0.1700000), wk =   0.0066225
        k(  135) = (  -0.0000000   0.1600000  -0.1600000), wk =   0.0066225
        k(  136) = (  -0.0000000   0.1500000  -0.1500000), wk =   0.0066225
        k(  137) = (   0.0000000   0.1400000  -0.1400000), wk =   0.0066225
        k(  138) = (   0.0000000   0.1300000  -0.1300000), wk =   0.0066225
        k(  139) = (  -0.0000000   0.1200000  -0.1200000), wk =   0.0066225
        k(  140) = (   0.0000000   0.1100000  -0.1100000), wk =   0.0066225
        k(  141) = (   0.0000000   0.1000000  -0.1000000), wk =   0.0066225
        k(  142) = (   0.0000000   0.0900000  -0.0900000), wk =   0.0066225
        k(  143) = (  -0.0000000   0.0800000  -0.0800000), wk =   0.0066225
        k(  144) = (   0.0000000   0.0700000  -0.0700000), wk =   0.0066225
        k(  145) = (  -0.0000000   0.0600000  -0.0600000), wk =   0.0066225
        k(  146) = (   0.0000000   0.0500000  -0.0500000), wk =   0.0066225
        k(  147) = (  -0.0000000   0.0400000  -0.0400000), wk =   0.0066225
        k(  148) = (   0.0000000   0.0300000  -0.0300000), wk =   0.0066225
        k(  149) = (   0.0000000   0.0200000  -0.0200000), wk =   0.0066225
        k(  150) = (   0.0000000   0.0100000  -0.0100000), wk =   0.0066225
        k(  151) = (   0.0000000   0.0000000   0.0000000), wk =   0.0066225

     Dense  grid:   187971 G-vectors     FFT dimensions: ( 256, 256, 256)

     Dynamical RAM for                 wfc:       2.24 MB

     Dynamical RAM for     wfc (w. buffer):       2.24 MB

     Dynamical RAM for           str. fact:       0.18 MB

     Dynamical RAM for           local pot:       0.00 MB

     Dynamical RAM for          nlocal pot:       2.67 MB

     Dynamical RAM for                qrad:      13.03 MB

     Dynamical RAM for          rho,v,vnew:      24.54 MB

     Dynamical RAM for           G-vectors:       0.19 MB

     Dynamical RAM for          h,s,v(r/c):       1.83 MB

     Dynamical RAM for          <psi|beta>:       2.91 MB

     Dynamical RAM for                 psi:       4.48 MB

     Dynamical RAM for                hpsi:       4.48 MB

     Dynamical RAM for                spsi:       4.48 MB

     Dynamical RAM for      wfcinit/wfcrot:       4.28 MB

     Dynamical RAM for           addusdens:      27.83 MB

     Estimated static dynamical RAM per process >      59.07 MB

     Estimated max dynamical RAM per process >      86.90 MB

     Estimated total dynamical RAM >       5.43 GB

     Check: negative core charge=   -0.000015
     Generating pointlists ...
     new r_m :   0.0448 (alat units)  2.3181 (a.u.) for type    1
     new r_m :   0.0448 (alat units)  2.3181 (a.u.) for type    2
     new r_m :   0.0456 (alat units)  2.3625 (a.u.) for type    3
     new r_m :   0.0448 (alat units)  2.3181 (a.u.) for type    4

     The potential is recalculated from file :
     ./tmp/MnBi2Te4.save/charge-density

     Starting wfcs are  176 randomized atomic wfcs +   24 random wfcs
     Checking if some PAW data can be deallocated... 
       PAW data deallocated on   59 nodes for type:  1
       PAW data deallocated on   59 nodes for type:  2
       PAW data deallocated on   44 nodes for type:  3
       PAW data deallocated on   30 nodes for type:  4

     Band Structure Calculation
     Davidson diagonalization with overlap

     Computing kpt #:     1  of   151
     total cpu time spent up to now is      142.5 secs

     Computing kpt #:     2  of   151
     total cpu time spent up to now is      303.0 secs

     Computing kpt #:     3  of   151
     total cpu time spent up to now is      445.5 secs

     Computing kpt #:     4  of   151
     total cpu time spent up to now is      667.0 secs

     Computing kpt #:     5  of   151
     c_bands:  1 eigenvalues not converged
     total cpu time spent up to now is     1133.5 secs

     Computing kpt #:     6  of   151
     c_bands:  1 eigenvalues not converged
     total cpu time spent up to now is     1284.0 secs

     Computing kpt #:     7  of   151
     c_bands:  1 eigenvalues not converged
     total cpu time spent up to now is     1436.4 secs

     Computing kpt #:     8  of   151
     c_bands:  1 eigenvalues not converged
     total cpu time spent up to now is     1586.1 secs

     Computing kpt #:     9  of   151
     c_bands:  1 eigenvalues not converged
     total cpu time spent up to now is     1735.1 secs

     Computing kpt #:    10  of   151
     total cpu time spent up to now is     1949.1 secs

     Computing kpt #:    11  of   151
     total cpu time spent up to now is     2665.3 secs

     Computing kpt #:    12  of   151
     total cpu time spent up to now is     2811.3 secs

     Computing kpt #:    13  of   151
     total cpu time spent up to now is     2946.6 secs

     Computing kpt #:    14  of   151
     total cpu time spent up to now is     3081.0 secs

     Computing kpt #:    15  of   151
     total cpu time spent up to now is     3214.7 secs

     Computing kpt #:    16  of   151
     total cpu time spent up to now is     3347.3 secs

     Computing kpt #:    17  of   151
     total cpu time spent up to now is     3476.8 secs

     Computing kpt #:    18  of   151
     total cpu time spent up to now is     3604.3 secs

     Computing kpt #:    19  of   151
     total cpu time spent up to now is     3753.4 secs

     Computing kpt #:    20  of   151
     total cpu time spent up to now is     3887.0 secs

     Computing kpt #:    21  of   151
     total cpu time spent up to now is     4001.6 secs

     Computing kpt #:    22  of   151
     total cpu time spent up to now is     4116.4 secs

     Computing kpt #:    23  of   151
     total cpu time spent up to now is     4230.8 secs

     Computing kpt #:    24  of   151
     total cpu time spent up to now is     4345.9 secs

     Computing kpt #:    25  of   151
     total cpu time spent up to now is     4461.0 secs

     Computing kpt #:    26  of   151
     total cpu time spent up to now is     4582.3 secs

     Computing kpt #:    27  of   151
     total cpu time spent up to now is     4939.3 secs

     Computing kpt #:    28  of   151
     c_bands:  2 eigenvalues not converged
     total cpu time spent up to now is     5103.5 secs

     Computing kpt #:    29  of   151
     total cpu time spent up to now is     5233.6 secs

     Computing kpt #:    30  of   151
     total cpu time spent up to now is     5356.6 secs

     Computing kpt #:    31  of   151
     total cpu time spent up to now is     5472.0 secs

     Computing kpt #:    32  of   151
     total cpu time spent up to now is     5587.4 secs

     Computing kpt #:    33  of   151
     total cpu time spent up to now is     5713.1 secs

     Computing kpt #:    34  of   151
     total cpu time spent up to now is     5838.6 secs

     Computing kpt #:    35  of   151
     total cpu time spent up to now is     5959.1 secs

     Computing kpt #:    36  of   151
     total cpu time spent up to now is     6079.7 secs

     Computing kpt #:    37  of   151
     total cpu time spent up to now is     6212.5 secs

     Computing kpt #:    38  of   151
     total cpu time spent up to now is     6422.3 secs

     Computing kpt #:    39  of   151
     total cpu time spent up to now is     6581.9 secs

     Computing kpt #:    40  of   151
     c_bands:  1 eigenvalues not converged
     total cpu time spent up to now is     6842.3 secs

     Computing kpt #:    41  of   151
     total cpu time spent up to now is     7288.0 secs

     Computing kpt #:    42  of   151
     total cpu time spent up to now is     7529.5 secs

     Computing kpt #:    43  of   151
     total cpu time spent up to now is     8293.4 secs

     Computing kpt #:    44  of   151
     total cpu time spent up to now is     8505.1 secs

     Computing kpt #:    45  of   151
     total cpu time spent up to now is     8648.4 secs

     Computing kpt #:    46  of   151
     c_bands:  2 eigenvalues not converged
     total cpu time spent up to now is     8800.5 secs

     Computing kpt #:    47  of   151
     total cpu time spent up to now is     8943.9 secs

     Computing kpt #:    48  of   151
     total cpu time spent up to now is     9161.0 secs

     Computing kpt #:    49  of   151
     total cpu time spent up to now is     9304.8 secs

     Computing kpt #:    50  of   151
     c_bands:  3 eigenvalues not converged
     total cpu time spent up to now is     9456.5 secs

     Computing kpt #:    51  of   151
     c_bands:  2 eigenvalues not converged
     total cpu time spent up to now is     9604.3 secs

     Computing kpt #:    52  of   151
     c_bands:  3 eigenvalues not converged
     total cpu time spent up to now is     9764.9 secs

     Computing kpt #:    53  of   151
     c_bands:  2 eigenvalues not converged
     total cpu time spent up to now is     9915.4 secs

     Computing kpt #:    54  of   151
     total cpu time spent up to now is    10586.4 secs

     Computing kpt #:    55  of   151
     total cpu time spent up to now is    11373.5 secs

     Computing kpt #:    56  of   151
     total cpu time spent up to now is    11629.7 secs

     Computing kpt #:    57  of   151
     total cpu time spent up to now is    11776.5 secs

     Computing kpt #:    58  of   151
     total cpu time spent up to now is    12095.0 secs

     Computing kpt #:    59  of   151
     total cpu time spent up to now is    12488.8 secs

     Computing kpt #:    60  of   151
     total cpu time spent up to now is    12758.7 secs

     Computing kpt #:    61  of   151
     c_bands:  1 eigenvalues not converged
     total cpu time spent up to now is    12909.6 secs

     Computing kpt #:    62  of   151
     c_bands:  2 eigenvalues not converged
     total cpu time spent up to now is    13062.2 secs

     Computing kpt #:    63  of   151
     total cpu time spent up to now is    13204.7 secs

     Computing kpt #:    64  of   151
     total cpu time spent up to now is    13429.2 secs

     Computing kpt #:    65  of   151
     c_bands:  1 eigenvalues not converged
     total cpu time spent up to now is    13650.6 secs

     Computing kpt #:    66  of   151
     total cpu time spent up to now is    13817.6 secs

     Computing kpt #:    67  of   151
     total cpu time spent up to now is    14024.3 secs

     Computing kpt #:    68  of   151
     total cpu time spent up to now is    14165.4 secs

     Computing kpt #:    69  of   151
     total cpu time spent up to now is    14312.6 secs

     Computing kpt #:    70  of   151
     total cpu time spent up to now is    14451.0 secs

     Computing kpt #:    71  of   151
     c_bands:  2 eigenvalues not converged
     total cpu time spent up to now is    14598.6 secs

     Computing kpt #:    72  of   151
     c_bands:  2 eigenvalues not converged
     total cpu time spent up to now is    14746.1 secs

     Computing kpt #:    73  of   151
     total cpu time spent up to now is    14884.3 secs

     Computing kpt #:    74  of   151
     total cpu time spent up to now is    15022.2 secs

     Computing kpt #:    75  of   151
     total cpu time spent up to now is    15186.6 secs

     Computing kpt #:    76  of   151
     total cpu time spent up to now is    15322.4 secs

     Computing kpt #:    77  of   151
     total cpu time spent up to now is    15457.3 secs

     Computing kpt #:    78  of   151
     total cpu time spent up to now is    15591.3 secs

     Computing kpt #:    79  of   151
     total cpu time spent up to now is    15722.7 secs

     Computing kpt #:    80  of   151
     total cpu time spent up to now is    15858.7 secs

     Computing kpt #:    81  of   151
     total cpu time spent up to now is    16064.7 secs

     Computing kpt #:    82  of   151
     total cpu time spent up to now is    16324.2 secs

     Computing kpt #:    83  of   151
     total cpu time spent up to now is    16490.9 secs

     Computing kpt #:    84  of   151
     total cpu time spent up to now is    16669.2 secs

     Computing kpt #:    85  of   151
     c_bands:  1 eigenvalues not converged
     total cpu time spent up to now is    16806.2 secs

     Computing kpt #:    86  of   151
     total cpu time spent up to now is    16961.6 secs

     Computing kpt #:    87  of   151
     total cpu time spent up to now is    17126.5 secs

     Computing kpt #:    88  of   151
     total cpu time spent up to now is    17250.1 secs

     Computing kpt #:    89  of   151
     total cpu time spent up to now is    17459.0 secs

     Computing kpt #:    90  of   151
     total cpu time spent up to now is    17669.8 secs

     Computing kpt #:    91  of   151
     total cpu time spent up to now is    17784.9 secs

     Computing kpt #:    92  of   151
     total cpu time spent up to now is    17899.9 secs

     Computing kpt #:    93  of   151
     total cpu time spent up to now is    18429.1 secs

     Computing kpt #:    94  of   151
     total cpu time spent up to now is    19112.7 secs

     Computing kpt #:    95  of   151
     total cpu time spent up to now is    19806.2 secs

     Computing kpt #:    96  of   151
     total cpu time spent up to now is    20495.1 secs

     Computing kpt #:    97  of   151
     total cpu time spent up to now is    21111.4 secs

     Computing kpt #:    98  of   151
     total cpu time spent up to now is    21730.2 secs

     Computing kpt #:    99  of   151
     total cpu time spent up to now is    22337.7 secs

     Computing kpt #:   100  of   151
     total cpu time spent up to now is    22941.8 secs

     Computing kpt #:   101  of   151
     total cpu time spent up to now is    23544.7 secs

     Computing kpt #:   102  of   151
     total cpu time spent up to now is    24149.5 secs

     Computing kpt #:   103  of   151
     total cpu time spent up to now is    24420.7 secs

     Computing kpt #:   104  of   151
     total cpu time spent up to now is    24533.3 secs

     Computing kpt #:   105  of   151
     total cpu time spent up to now is    24959.0 secs

     Computing kpt #:   106  of   151
     c_bands:  2 eigenvalues not converged
     total cpu time spent up to now is    25178.0 secs

     Computing kpt #:   107  of   151
     total cpu time spent up to now is    25433.3 secs

     Computing kpt #:   108  of   151
     total cpu time spent up to now is    25620.8 secs

     Computing kpt #:   109  of   151
     c_bands:  2 eigenvalues not converged
     total cpu time spent up to now is    25752.0 secs

     Computing kpt #:   110  of   151
     total cpu time spent up to now is    25883.3 secs

     Computing kpt #:   111  of   151
     total cpu time spent up to now is    26112.5 secs

     Computing kpt #:   112  of   151
     total cpu time spent up to now is    26731.7 secs

     Computing kpt #:   113  of   151
     total cpu time spent up to now is    27346.3 secs

     Computing kpt #:   114  of   151
     total cpu time spent up to now is    27950.4 secs

     Computing kpt #:   115  of   151
     c_bands:  1 eigenvalues not converged
     total cpu time spent up to now is    28085.0 secs

     Computing kpt #:   116  of   151
     total cpu time spent up to now is    28208.6 secs

     Computing kpt #:   117  of   151
     total cpu time spent up to now is    28325.4 secs

     Computing kpt #:   118  of   151
     total cpu time spent up to now is    28449.8 secs

     Computing kpt #:   119  of   151
     total cpu time spent up to now is    28846.8 secs

     Computing kpt #:   120  of   151
     total cpu time spent up to now is    29468.6 secs

     Computing kpt #:   121  of   151
     total cpu time spent up to now is    30088.2 secs

     Computing kpt #:   122  of   151
     total cpu time spent up to now is    30713.4 secs

     Computing kpt #:   123  of   151
     total cpu time spent up to now is    31353.7 secs

     Computing kpt #:   124  of   151
     total cpu time spent up to now is    31636.4 secs

     Computing kpt #:   125  of   151
     total cpu time spent up to now is    31754.1 secs

     Computing kpt #:   126  of   151
     total cpu time spent up to now is    32236.1 secs

     Computing kpt #:   127  of   151
     total cpu time spent up to now is    32876.0 secs

     Computing kpt #:   128  of   151
     total cpu time spent up to now is    33496.2 secs

     Computing kpt #:   129  of   151
     total cpu time spent up to now is    34148.8 secs

     Computing kpt #:   130  of   151
     total cpu time spent up to now is    34797.1 secs

     Computing kpt #:   131  of   151
     total cpu time spent up to now is    35273.6 secs

     Computing kpt #:   132  of   151
     total cpu time spent up to now is    35579.5 secs

     Computing kpt #:   133  of   151
     total cpu time spent up to now is    36232.7 secs

     Computing kpt #:   134  of   151
     total cpu time spent up to now is    36954.4 secs

     Computing kpt #:   135  of   151
     total cpu time spent up to now is    37650.4 secs

     Computing kpt #:   136  of   151
     total cpu time spent up to now is    38353.8 secs

     Computing kpt #:   137  of   151
     total cpu time spent up to now is    38641.2 secs

     Computing kpt #:   138  of   151
     total cpu time spent up to now is    39002.0 secs

     Computing kpt #:   139  of   151
     total cpu time spent up to now is    39686.1 secs

     Computing kpt #:   140  of   151
     total cpu time spent up to now is    40386.4 secs

     Computing kpt #:   141  of   151
     total cpu time spent up to now is    41088.1 secs

     Computing kpt #:   142  of   151
     total cpu time spent up to now is    41845.4 secs

     Computing kpt #:   143  of   151
     total cpu time spent up to now is    42618.9 secs

     Computing kpt #:   144  of   151
     c_bands:  2 eigenvalues not converged
     total cpu time spent up to now is    43058.8 secs

     Computing kpt #:   145  of   151
     c_bands:  2 eigenvalues not converged
     total cpu time spent up to now is    43209.7 secs

     Computing kpt #:   146  of   151
     c_bands:  2 eigenvalues not converged
     total cpu time spent up to now is    43361.5 secs

     Computing kpt #:   147  of   151
     c_bands:  1 eigenvalues not converged
     total cpu time spent up to now is    43512.4 secs

     Computing kpt #:   148  of   151
     total cpu time spent up to now is    43656.6 secs

     Computing kpt #:   149  of   151
     total cpu time spent up to now is    43799.4 secs

     Computing kpt #:   150  of   151
     c_bands:  1 eigenvalues not converged
     total cpu time spent up to now is    43946.0 secs

     Computing kpt #:   151  of   151
     total cpu time spent up to now is    44083.7 secs

     ethr =  7.25E-11,  avg # of iterations = 90.0

     total cpu time spent up to now is    44083.7 secs

     End of band structure calculation

          k = 0.0000 0.0000 0.0000 ( 23485 PWs)   bands (ev):

   -73.9939 -73.9884 -69.4224 -69.4170 -43.2472 -43.2421 -42.8328 -42.8272
   -42.3319 -42.3265 -38.6016 -38.5967 -38.1804 -38.1748 -37.8535 -37.8483
   -16.9871 -16.9870 -16.9817 -16.9815 -16.9789 -16.9786 -16.9741 -16.9739
   -16.9620 -16.9619 -16.9607 -16.9606 -16.9592 -16.9589 -16.9585 -16.9583
   -14.0033 -14.0032 -14.0012 -14.0010 -13.9994 -13.9992 -13.9979 -13.9976
   -13.9952 -13.9950 -13.9913 -13.9912 -13.9835 -13.9834 -13.9817 -13.9815
   -13.9765 -13.9763 -13.9756 -13.9753 -13.9743 -13.9742 -13.9654 -13.9651
    -5.5332  -5.5245  -5.5022  -5.4931  -5.3189  -5.3090  -5.2690  -5.2584
    -3.8773  -3.8765  -3.6650  -3.6626  -3.4048  -3.4042  -3.1358  -3.1346
    -1.4994  -1.4944  -1.1660  -1.1609  -0.8238  -0.8168  -0.5476  -0.5404
     3.5964   3.5974   3.9596   3.9634   4.2542   4.2589   4.2929   4.2960
     4.6360   4.6560   4.8084   4.8130   4.8220   4.8267   4.9406   4.9525
     5.1536   5.1688   5.2978   5.3158   5.5120   5.5122   5.6538   5.6669
     5.7099   5.7462   5.9504   5.9785   6.0748   6.0776   6.1686   6.1868
     6.3100   6.3139   6.3149   6.3227   6.3452   6.3553   6.5588   6.6281
     6.6360   6.7051   6.7987   6.7988   6.9514   6.9600   7.0853   7.0907
     7.1767   7.1816   7.2672   7.2756   7.5358   7.5388   7.6072   7.6186
     7.7301   7.7357   7.8270   7.8286   7.8352   7.8410   8.0192   8.0277
     8.1358   8.1371   8.6504   8.6520   8.6541   8.6554   8.8221   8.8253
     8.9230   8.9282   9.1081   9.1177   9.3035   9.3138   9.3700   9.3783
     9.4352   9.4573   9.5629   9.5734   9.8377   9.8383   9.8430   9.8475
     9.9020   9.9022  10.4385  10.4449  11.4647  11.4664  11.7598  11.7600
    11.7766  11.7827  12.5461  12.5506  12.7867  12.7949  12.9160  12.9215
    13.2780  13.3005  13.3045  13.3234  13.3629  13.3629  13.3818  13.4004
    13.4971  13.5758  13.6611  13.7437  13.7463  13.7643  13.8609  13.8629

          k = 0.1264 0.0730 0.0033 ( 23471 PWs)   bands (ev):

   -73.9939 -73.9884 -69.4224 -69.4170 -43.2472 -43.2421 -42.8328 -42.8272
   -42.3319 -42.3265 -38.6016 -38.5967 -38.1804 -38.1748 -37.8535 -37.8483
   -16.9870 -16.9869 -16.9816 -16.9815 -16.9789 -16.9787 -16.9741 -16.9739
   -16.9619 -16.9619 -16.9607 -16.9606 -16.9592 -16.9590 -16.9585 -16.9583
   -14.0032 -14.0031 -14.0011 -14.0010 -13.9994 -13.9992 -13.9978 -13.9976
   -13.9951 -13.9950 -13.9913 -13.9912 -13.9834 -13.9833 -13.9817 -13.9816
   -13.9764 -13.9763 -13.9755 -13.9753 -13.9743 -13.9742 -13.9653 -13.9651
    -5.5297  -5.5209  -5.4987  -5.4896  -5.3155  -5.3056  -5.2656  -5.2550
    -3.8747  -3.8739  -3.6626  -3.6602  -3.4028  -3.4022  -3.1342  -3.1329
    -1.5001  -1.4951  -1.1681  -1.1630  -0.8268  -0.8197  -0.5523  -0.5450
     3.5964   3.5974   3.9573   3.9611   4.2520   4.2567   4.2881   4.2913
     4.6363   4.6559   4.8074   4.8120   4.8205   4.8252   4.9292   4.9419
     5.1237   5.1361   5.2903   5.3072   5.4948   5.4967   5.6429   5.6495
     5.7189   5.7479   5.9418   5.9675   6.0713   6.0738   6.1412   6.1527
     6.2617   6.2632   6.3084   6.3122   6.3874   6.3961   6.5610   6.6224
     6.6316   6.6798   6.8078   6.8079   6.9872   6.9935   7.0375   7.0436
     7.1547   7.1589   7.2586   7.2660   7.5418   7.5438   7.5997   7.6097
     7.6803   7.6858   7.8384   7.8444   7.9026   7.9059   8.0266   8.0352
     8.1449   8.1462   8.6553   8.6596   8.6601   8.6622   8.8291   8.8322
     8.9371   8.9427   9.1019   9.1098   9.2982   9.3099   9.4065   9.4128
     9.4593   9.4774   9.5589   9.5703   9.7975   9.8014   9.8486   9.8565
     9.9454   9.9476  10.4281  10.4342  11.4790  11.4807  11.7482  11.7495
    11.8096  11.8142  12.5607  12.5655  12.7845  12.7912  12.9033  12.9075
    13.1923  13.2094  13.3446  13.3553  13.3714  13.3756  13.4336  13.4426
    13.4818  13.5490  13.6446  13.7059  13.7403  13.7609  13.8685  13.8772

          k = 0.2529 0.1460 0.0067 ( 23466 PWs)   bands (ev):

   -73.9939 -73.9884 -69.4224 -69.4170 -43.2472 -43.2421 -42.8328 -42.8272
   -42.3319 -42.3265 -38.6016 -38.5967 -38.1804 -38.1748 -37.8535 -37.8483
   -16.9869 -16.9869 -16.9815 -16.9815 -16.9789 -16.9787 -16.9741 -16.9739
   -16.9619 -16.9618 -16.9606 -16.9605 -16.9592 -16.9590 -16.9585 -16.9583
   -14.0031 -14.0030 -14.0010 -14.0009 -13.9993 -13.9992 -13.9978 -13.9976
   -13.9952 -13.9951 -13.9914 -13.9913 -13.9832 -13.9832 -13.9818 -13.9817
   -13.9762 -13.9762 -13.9755 -13.9753 -13.9744 -13.9743 -13.9653 -13.9651
    -5.5191  -5.5104  -5.4882  -5.4791  -5.3051  -5.2952  -5.2554  -5.2447
    -3.8669  -3.8661  -3.6554  -3.6530  -3.3969  -3.3963  -3.1293  -3.1281
    -1.5024  -1.4973  -1.1745  -1.1693  -0.8357  -0.8285  -0.5662  -0.5589
     3.5961   3.5969   3.9506   3.9545   4.2418   4.2463   4.2785   4.2820
     4.6348   4.6533   4.8040   4.8084   4.8155   4.8198   4.8906   4.9053
     5.0561   5.0628   5.2594   5.2732   5.4439   5.4492   5.6139   5.6166
     5.7228   5.7435   5.9173   5.9361   6.0401   6.0502   6.0816   6.0912
     6.1918   6.1951   6.3020   6.3055   6.4002   6.4109   6.5490   6.5895
     6.6225   6.6375   6.8351   6.8378   6.9631   6.9697   7.0512   7.0637
     7.0941   7.1010   7.2293   7.2342   7.5057   7.5130   7.5407   7.5454
     7.6778   7.6863   7.8806   7.8900   7.9905   7.9956   8.0471   8.0564
     8.1793   8.1802   8.6670   8.6716   8.6800   8.6832   8.8496   8.8527
     8.9813   8.9882   9.0921   9.0977   9.3010   9.3143   9.4692   9.4765
     9.5266   9.5299   9.5674   9.5804   9.7436   9.7485   9.8735   9.8794
    10.0148  10.0180  10.4009  10.4062  11.5200  11.5216  11.7483  11.7487
    11.8651  11.8691  12.5965  12.6024  12.7701  12.7718  12.8969  12.9005
    13.0905  13.1049  13.3384  13.3480  13.4078  13.4094  13.4547  13.4640
    13.4971  13.5085  13.5787  13.6195  13.7449  13.7754  13.8710  13.8962

          k = 0.3793 0.2190 0.0100 ( 23449 PWs)   bands (ev):

   -73.9939 -73.9884 -69.4223 -69.4170 -43.2472 -43.2421 -42.8328 -42.8272
   -42.3319 -42.3265 -38.6016 -38.5967 -38.1804 -38.1748 -37.8535 -37.8483
   -16.9869 -16.9868 -16.9815 -16.9814 -16.9788 -16.9787 -16.9741 -16.9739
   -16.9618 -16.9617 -16.9605 -16.9605 -16.9591 -16.9590 -16.9584 -16.9583
   -14.0029 -14.0029 -14.0009 -14.0008 -13.9992 -13.9991 -13.9977 -13.9976
   -13.9953 -13.9952 -13.9915 -13.9914 -13.9831 -13.9830 -13.9818 -13.9818
   -13.9761 -13.9760 -13.9753 -13.9752 -13.9744 -13.9744 -13.9651 -13.9650
    -5.5015  -5.4928  -5.4708  -5.4616  -5.2879  -5.2780  -5.2383  -5.2277
    -3.8541  -3.8533  -3.6436  -3.6412  -3.3871  -3.3865  -3.1213  -3.1201
    -1.5063  -1.5011  -1.1852  -1.1800  -0.8507  -0.8435  -0.5894  -0.5821
     3.5944   3.5951   3.9397   3.9436   4.2172   4.2215   4.2728   4.2768
     4.6242   4.6410   4.7871   4.7927   4.8049   4.8074   4.8283   4.8396
     4.9860   4.9892   5.2033   5.2136   5.3651   5.3723   5.5707   5.5744
     5.7067   5.7205   5.8709   5.8809   5.9558   5.9685   6.0353   6.0502
     6.1431   6.1474   6.2788   6.2829   6.3575   6.3708   6.5138   6.5394
     6.5817   6.5860   6.8702   6.8762   6.9547   6.9578   7.0018   7.0053
     7.1043   7.1207   7.1751   7.1798   7.4523   7.4577   7.4898   7.4932
     7.6604   7.6708   7.9308   7.9484   8.0421   8.0485   8.1139   8.1183
     8.2459   8.2483   8.6779   8.6825   8.7088   8.7125   8.8826   8.8856
     9.0514   9.0602   9.0835   9.0893   9.3343   9.3469   9.4928   9.5028
     9.6014   9.6027   9.6257   9.6362   9.7229   9.7298   9.9062   9.9110
    10.0949  10.0984  10.3678  10.3721  11.5806  11.5825  11.7546  11.7550
    11.9264  11.9293  12.6334  12.6400  12.7405  12.7448  12.9248  12.9295
    13.0221  13.0335  13.2639  13.2951  13.4007  13.4138  13.4477  13.4539
    13.4828  13.4934  13.5234  13.5389  13.7698  13.7988  13.8592  13.8903

          k = 0.5058 0.2920 0.0134 ( 23456 PWs)   bands (ev):

   -73.9939 -73.9884 -69.4223 -69.4170 -43.2473 -43.2421 -42.8328 -42.8272
   -42.3319 -42.3265 -38.6016 -38.5967 -38.1804 -38.1748 -37.8535 -37.8483
   -16.9868 -16.9867 -16.9814 -16.9813 -16.9788 -16.9787 -16.9741 -16.9740
   -16.9617 -16.9617 -16.9604 -16.9604 -16.9591 -16.9590 -16.9584 -16.9583
   -14.0028 -14.0027 -14.0007 -14.0007 -13.9991 -13.9990 -13.9976 -13.9975
   -13.9954 -13.9954 -13.9916 -13.9916 -13.9829 -13.9828 -13.9820 -13.9820
   -13.9759 -13.9759 -13.9752 -13.9751 -13.9746 -13.9746 -13.9650 -13.9649
    -5.4770  -5.4682  -5.4463  -5.4372  -5.2639  -5.2540  -5.2145  -5.2039
    -3.8362  -3.8354  -3.6271  -3.6247  -3.3736  -3.3730  -3.1103  -3.1091
    -1.5123  -1.5069  -1.2006  -1.1952  -0.8722  -0.8648  -0.6219  -0.6145
     3.5897   3.5904   3.9247   3.9288   4.1808   4.1848   4.2709   4.2751
     4.5910   4.6054   4.6935   4.7062   4.7930   4.7976   4.8017   4.8068
     4.9232   4.9270   5.1360   5.1428   5.2699   5.2766   5.5132   5.5188
     5.6623   5.6721   5.7866   5.8035   5.8705   5.8820   5.9609   5.9768
     6.1305   6.1337   6.1940   6.2065   6.3131   6.3215   6.4797   6.4818
     6.5154   6.5335   6.8547   6.8644   6.9369   6.9422   7.0043   7.0117
     7.0427   7.0494   7.1545   7.1671   7.4018   7.4121   7.4802   7.4876
     7.6156   7.6277   7.9506   7.9754   8.0583   8.0744   8.2243   8.2270
     8.3439   8.3460   8.6828   8.6874   8.7425   8.7466   8.9250   8.9282
     9.0713   9.0794   9.1319   9.1406   9.4021   9.4130   9.4980   9.5024
     9.6538   9.6613   9.6839   9.6937   9.7907   9.7950   9.9483   9.9527
    10.1884  10.1919  10.3438  10.3473  11.6457  11.6491  11.7573  11.7586
    11.9859  11.9876  12.6546  12.6554  12.7037  12.7144  12.9745  12.9748
    13.0169  13.0275  13.1824  13.2084  13.3074  13.3156  13.3857  13.3901
    13.4865  13.4947  13.5328  13.5383  13.8089  13.8277  13.8543  13.8855

          k = 0.6322 0.3650 0.0167 ( 23429 PWs)   bands (ev):

   -73.9939 -73.9884 -69.4223 -69.4170 -43.2473 -43.2421 -42.8328 -42.8272
   -42.3319 -42.3265 -38.6016 -38.5967 -38.1804 -38.1748 -37.8535 -37.8483
   -16.9866 -16.9866 -16.9812 -16.9812 -16.9788 -16.9787 -16.9741 -16.9740
   -16.9616 -16.9615 -16.9603 -16.9602 -16.9591 -16.9590 -16.9584 -16.9583
   -14.0025 -14.0025 -14.0005 -14.0005 -13.9990 -13.9989 -13.9975 -13.9974
   -13.9956 -13.9955 -13.9918 -13.9918 -13.9825 -13.9825 -13.9822 -13.9821
   -13.9758 -13.9757 -13.9749 -13.9748 -13.9748 -13.9747 -13.9649 -13.9647
    -5.4455  -5.4367  -5.4150  -5.4059  -5.2331  -5.2231  -5.1840  -5.1733
    -3.8135  -3.8127  -3.6062  -3.6038  -3.3565  -3.3559  -3.0965  -3.0953
    -1.5208  -1.5151  -1.2208  -1.2151  -0.9004  -0.8929  -0.6637  -0.6561
     3.5800   3.5809   3.9057   3.9100   4.1363   4.1401   4.2697   4.2740
     4.5158   4.5269   4.5848   4.5980   4.7708   4.7770   4.7862   4.7907
     4.8624   4.8670   5.0759   5.0788   5.1729   5.1778   5.4371   5.4446
     5.5794   5.5888   5.6918   5.7125   5.7853   5.7975   5.8709   5.8845
     6.0704   6.0793   6.1272   6.1344   6.2823   6.2876   6.4230   6.4415
     6.4566   6.4908   6.7481   6.7625   6.9140   6.9211   6.9662   6.9726
     7.0628   7.0749   7.0992   7.1110   7.3664   7.3808   7.4971   7.5024
     7.5683   7.5822   7.9632   7.9893   8.0704   8.0909   8.3339   8.3371
     8.4638   8.4647   8.6819   8.6865   8.7780   8.7823   8.9714   8.9751
     9.0610   9.0703   9.1937   9.1990   9.4781   9.4867   9.5127   9.5235
     9.7024   9.7104   9.7663   9.7736   9.8807   9.8832  10.0037  10.0088
    10.2942  10.2972  10.3478  10.3490  11.6703  11.6744  11.7834  11.7858
    12.0428  12.0442  12.5897  12.5947  12.7446  12.7611  12.9526  12.9747
    13.0609  13.0679  13.1117  13.1196  13.2310  13.2346  13.3265  13.3414
    13.4442  13.4550  13.6109  13.6139  13.8334  13.8463  13.8784  13.8893

          k = 0.7587 0.4380 0.0201 ( 23445 PWs)   bands (ev):

   -73.9939 -73.9884 -69.4223 -69.4170 -43.2473 -43.2422 -42.8328 -42.8272
   -42.3319 -42.3265 -38.6016 -38.5967 -38.1803 -38.1748 -37.8535 -37.8483
   -16.9865 -16.9865 -16.9811 -16.9811 -16.9789 -16.9788 -16.9741 -16.9740
   -16.9615 -16.9615 -16.9602 -16.9601 -16.9591 -16.9590 -16.9585 -16.9584
   -14.0023 -14.0023 -14.0004 -14.0004 -13.9989 -13.9988 -13.9975 -13.9974
   -13.9957 -13.9957 -13.9920 -13.9920 -13.9824 -13.9824 -13.9822 -13.9822
   -13.9756 -13.9756 -13.9750 -13.9750 -13.9746 -13.9745 -13.9647 -13.9646
    -5.4071  -5.3983  -5.3769  -5.3677  -5.1956  -5.1856  -5.1469  -5.1362
    -3.7861  -3.7853  -3.5810  -3.5786  -3.3362  -3.3355  -3.0801  -3.0789
    -1.5324  -1.5263  -1.2463  -1.2402  -0.9357  -0.9281  -0.7145  -0.7068
     3.5633   3.5642   3.8804   3.8850   4.0856   4.0892   4.2658   4.2700
     4.4094   4.4182   4.4733   4.4855   4.7288   4.7382   4.7645   4.7684
     4.8110   4.8144   5.0307   5.0329   5.0862   5.0894   5.3385   5.3477
     5.4579   5.4651   5.6051   5.6234   5.6988   5.7105   5.7796   5.7900
     5.9482   5.9574   6.1089   6.1126   6.2460   6.2575   6.3666   6.3845
     6.4222   6.4518   6.6220   6.6402   6.8644   6.8728   6.9663   6.9743
     6.9900   6.9959   7.0581   7.0666   7.3525   7.3626   7.5058   7.5138
     7.5324   7.5473   7.9920   8.0119   8.0900   8.1125   8.4352   8.4384
     8.5845   8.5866   8.6770   8.6814   8.8141   8.8183   9.0151   9.0198
     9.0548   9.0644   9.2135   9.2165   9.5378   9.5424   9.5922   9.6011
     9.7599   9.7681   9.8381   9.8457   9.9698   9.9727  10.0749  10.0784
    10.3672  10.3708  10.4255  10.4322  11.6384  11.6409  11.8468  11.8497
    12.0946  12.0952  12.5165  12.5239  12.8056  12.8296  12.8704  12.8925
    13.0114  13.0189  13.1327  13.1361  13.1511  13.1590  13.3584  13.3761
    13.4354  13.4487  13.7014  13.7043  13.8387  13.8579  13.8953  13.9225

          k = 0.8851 0.5110 0.0234 ( 23445 PWs)   bands (ev):

   -73.9939 -73.9884 -69.4223 -69.4170 -43.2473 -43.2422 -42.8328 -42.8272
   -42.3320 -42.3266 -38.6016 -38.5968 -38.1803 -38.1748 -37.8536 -37.8484
   -16.9864 -16.9864 -16.9810 -16.9810 -16.9789 -16.9788 -16.9741 -16.9740
   -16.9613 -16.9613 -16.9600 -16.9600 -16.9591 -16.9590 -16.9584 -16.9584
   -14.0021 -14.0020 -14.0003 -14.0003 -13.9987 -13.9987 -13.9973 -13.9973
   -13.9959 -13.9959 -13.9923 -13.9923 -13.9827 -13.9827 -13.9818 -13.9818
   -13.9755 -13.9754 -13.9753 -13.9753 -13.9741 -13.9741 -13.9645 -13.9644
    -5.3620  -5.3531  -5.3320  -5.3228  -5.1515  -5.1415  -5.1033  -5.0926
    -3.7544  -3.7535  -3.5519  -3.5495  -3.3129  -3.3120  -3.0615  -3.0602
    -1.5477  -1.5410  -1.2776  -1.2709  -0.9785  -0.9707  -0.7744  -0.7666
     3.5375   3.5384   3.8424   3.8469   4.0321   4.0360   4.2470   4.2500
     4.3082   4.3162   4.3566   4.3643   4.6621   4.6722   4.7205   4.7218
     4.7831   4.7868   4.9938   4.9971   5.0176   5.0213   5.2236   5.2339
     5.3153   5.3216   5.5201   5.5375   5.6126   5.6198   5.6930   5.7042
     5.8311   5.8427   6.0650   6.0678   6.2166   6.2354   6.2811   6.3045
     6.3875   6.4108   6.5435   6.5597   6.7965   6.8082   6.8796   6.8872
     6.9546   6.9611   6.9938   7.0030   7.3344   7.3388   7.4907   7.4990
     7.5244   7.5281   8.0319   8.0466   8.1288   8.1562   8.5285   8.5313
     8.6673   8.6711   8.6920   8.6963   8.8520   8.8561   9.0448   9.0517
     9.0617   9.0682   9.2082   9.2129   9.6067   9.6150   9.6734   9.6744
     9.8335   9.8456   9.8912   9.9016  10.0423  10.0490  10.1569  10.1577
    10.4393  10.4431  10.5467  10.5544  11.5954  11.5967  11.9042  11.9103
    12.1314  12.1328  12.4656  12.4762  12.7351  12.7673  12.8739  12.9009
    12.9554  12.9659  13.0784  13.0872  13.2069  13.2119  13.3305  13.3490
    13.5445  13.5601  13.7873  13.7924  13.8476  13.8589  13.9358  13.9677

          k = 1.0116 0.5840 0.0268 ( 23456 PWs)   bands (ev):

   -73.9939 -73.9884 -69.4223 -69.4170 -43.2473 -43.2422 -42.8327 -42.8272
   -42.3320 -42.3266 -38.6017 -38.5968 -38.1803 -38.1747 -37.8536 -37.8484
   -16.9863 -16.9862 -16.9809 -16.9808 -16.9789 -16.9789 -16.9742 -16.9741
   -16.9612 -16.9612 -16.9599 -16.9599 -16.9591 -16.9590 -16.9585 -16.9584
   -14.0019 -14.0018 -14.0002 -14.0002 -13.9986 -13.9985 -13.9973 -13.9973
   -13.9960 -13.9959 -13.9926 -13.9925 -13.9830 -13.9830 -13.9813 -13.9813
   -13.9756 -13.9756 -13.9754 -13.9753 -13.9737 -13.9736 -13.9643 -13.9642
    -5.3101  -5.3013  -5.2805  -5.2713  -5.1010  -5.0910  -5.0533  -5.0425
    -3.7185  -3.7176  -3.5192  -3.5167  -3.2869  -3.2859  -3.0410  -3.0396
    -1.5673  -1.5599  -1.3151  -1.3077  -1.0289  -1.0209  -0.8431  -0.8351
     3.5013   3.5021   3.7822   3.7860   3.9824   3.9873   4.1592   4.1683
     4.2236   4.2273   4.2940   4.2979   4.5757   4.5840   4.6556   4.6559
     4.7655   4.7695   4.9412   4.9422   4.9729   4.9810   5.1161   5.1269
     5.1743   5.1790   5.4300   5.4487   5.5230   5.5289   5.6144   5.6292
     5.7216   5.7368   6.0027   6.0111   6.1486   6.1586   6.2222   6.2335
     6.3491   6.3692   6.5106   6.5215   6.7104   6.7284   6.7722   6.7787
     6.8488   6.8515   6.9977   7.0052   7.2911   7.2932   7.4507   7.4561
     7.5198   7.5284   8.0726   8.0936   8.1847   8.2189   8.6064   8.6078
     8.6669   8.6694   8.7721   8.7772   8.8943   8.8979   9.0608   9.0698
     9.0732   9.0767   9.2191   9.2238   9.6523   9.6582   9.7413   9.7475
     9.8999   9.9154   9.9526   9.9639  10.1215  10.1301  10.2214  10.2221
    10.5260  10.5315  10.6725  10.6809  11.5624  11.5630  11.9366  11.9475
    12.1573  12.1605  12.4202  12.4386  12.6454  12.6662  12.8793  12.8890
    12.9462  12.9539  13.0603  13.0747  13.2724  13.2820  13.3330  13.3462
    13.6623  13.6777  13.8155  13.8253  13.8810  13.8857  14.0142  14.0310

          k = 1.1380 0.6570 0.0301 ( 23448 PWs)   bands (ev):

   -73.9939 -73.9884 -69.4223 -69.4170 -43.2473 -43.2422 -42.8327 -42.8272
   -42.3320 -42.3266 -38.6017 -38.5968 -38.1803 -38.1747 -37.8536 -37.8484
   -16.9861 -16.9861 -16.9807 -16.9807 -16.9789 -16.9789 -16.9742 -16.9741
   -16.9611 -16.9611 -16.9597 -16.9597 -16.9591 -16.9590 -16.9584 -16.9584
   -14.0017 -14.0017 -14.0002 -14.0002 -13.9984 -13.9984 -13.9973 -13.9973
   -13.9960 -13.9959 -13.9928 -13.9928 -13.9833 -13.9832 -13.9808 -13.9808
   -13.9759 -13.9758 -13.9753 -13.9752 -13.9731 -13.9731 -13.9640 -13.9639
    -5.2517  -5.2429  -5.2225  -5.2132  -5.0442  -5.0341  -4.9971  -4.9863
    -3.6788  -3.6780  -3.4832  -3.4807  -3.2587  -3.2576  -3.0191  -3.0176
    -1.5921  -1.5837  -1.3594  -1.3510  -1.0869  -1.0787  -0.9202  -0.9120
     3.4535   3.4545   3.6980   3.7013   3.9328   3.9374   4.0402   4.0548
     4.1408   4.1495   4.2705   4.2743   4.4855   4.4923   4.5661   4.5693
     4.7467   4.7510   4.8624   4.8639   4.9287   4.9375   5.0372   5.0492
     5.0608   5.0692   5.3364   5.3576   5.4313   5.4391   5.5465   5.5634
     5.6200   5.6379   5.9355   5.9470   6.0265   6.0382   6.2038   6.2082
     6.2959   6.3169   6.4840   6.4946   6.5949   6.6126   6.6656   6.6771
     6.7699   6.7713   6.9933   7.0010   7.2228   7.2286   7.4060   7.4087
     7.5056   7.5164   8.1177   8.1436   8.2425   8.2813   8.6268   8.6314
     8.7063   8.7107   8.8321   8.8369   8.9394   8.9425   9.0682   9.0713
     9.0914   9.0967   9.2529   9.2578   9.6759   9.6781   9.7968   9.8013
     9.9163   9.9336  10.0282  10.0399  10.2235  10.2292  10.2825  10.2883
    10.5959  10.6037  10.7965  10.8050  11.5463  11.5477  11.9427  11.9555
    12.1897  12.1927  12.3422  12.3690  12.6118  12.6201  12.8166  12.8212
    12.9807  12.9880  13.1097  13.1375  13.3100  13.3247  13.3898  13.3948
    13.7474  13.7649  13.8052  13.8091  13.9539  13.9585  14.0526  14.0596

          k = 1.2645 0.7300 0.0335 ( 23450 PWs)   bands (ev):

   -73.9939 -73.9884 -69.4223 -69.4170 -43.2474 -43.2422 -42.8327 -42.8272
   -42.3320 -42.3266 -38.6017 -38.5968 -38.1803 -38.1747 -37.8537 -37.8485
   -16.9859 -16.9859 -16.9805 -16.9805 -16.9790 -16.9789 -16.9742 -16.9741
   -16.9609 -16.9609 -16.9595 -16.9595 -16.9591 -16.9590 -16.9584 -16.9584
   -14.0016 -14.0015 -14.0003 -14.0003 -13.9982 -13.9981 -13.9974 -13.9974
   -13.9958 -13.9958 -13.9931 -13.9930 -13.9835 -13.9835 -13.9803 -13.9803
   -13.9762 -13.9761 -13.9752 -13.9751 -13.9725 -13.9725 -13.9637 -13.9636
    -5.1870  -5.1781  -5.1581  -5.1488  -4.9812  -4.9711  -4.9349  -4.9239
    -3.6359  -3.6350  -3.4446  -3.4420  -3.2287  -3.2275  -2.9965  -2.9948
    -1.6225  -1.6130  -1.4112  -1.4016  -1.1523  -1.1439  -1.0055  -0.9970
     3.3941   3.3953   3.5975   3.6010   3.8578   3.8606   3.9614   3.9700
     4.0563   4.0688   4.2363   4.2415   4.4113   4.4172   4.4607   4.4692
     4.7055   4.7109   4.7715   4.7735   4.8803   4.8870   4.9562   4.9646
     5.0223   5.0304   5.2480   5.2702   5.3435   5.3539   5.4839   5.5016
     5.5273   5.5457   5.8559   5.8670   5.9231   5.9412   6.1733   6.1806
     6.2247   6.2444   6.4301   6.4410   6.4731   6.4860   6.5871   6.5979
     6.7163   6.7169   6.9740   6.9823   7.1472   7.1557   7.3524   7.3576
     7.4909   7.4998   8.1629   8.1914   8.2882   8.3296   8.6154   8.6199
     8.7671   8.7722   8.8789   8.8827   8.9762   8.9786   9.0741   9.0766
     9.1192   9.1244   9.2969   9.3032   9.6894   9.6927   9.8114   9.8205
     9.9410   9.9494  10.0824  10.0914  10.2652  10.2687  10.4132  10.4226
    10.6397  10.6502  10.9021  10.9101  11.5450  11.5498  11.9376  11.9461
    12.2261  12.2279  12.2466  12.2748  12.6059  12.6088  12.7462  12.7544
    13.0596  13.0679  13.1949  13.2221  13.3474  13.3575  13.4690  13.4762
    13.7341  13.7553  13.8720  13.8834  14.0276  14.0361  14.1037  14.1086

          k = 1.3909 0.8030 0.0368 ( 23455 PWs)   bands (ev):

   -73.9939 -73.9884 -69.4223 -69.4170 -43.2474 -43.2423 -42.8327 -42.8272
   -42.3320 -42.3267 -38.6018 -38.5969 -38.1803 -38.1747 -37.8537 -37.8485
   -16.9858 -16.9857 -16.9804 -16.9803 -16.9791 -16.9790 -16.9742 -16.9741
   -16.9608 -16.9608 -16.9594 -16.9594 -16.9590 -16.9589 -16.9584 -16.9584
   -14.0016 -14.0015 -14.0005 -14.0005 -13.9980 -13.9979 -13.9974 -13.9974
   -13.9957 -13.9956 -13.9933 -13.9933 -13.9838 -13.9838 -13.9798 -13.9797
   -13.9764 -13.9764 -13.9751 -13.9750 -13.9719 -13.9718 -13.9634 -13.9633
    -5.1160  -5.1070  -5.0876  -5.0783  -4.9124  -4.9021  -4.8669  -4.8558
    -3.5901  -3.5892  -3.4039  -3.4012  -3.1974  -3.1960  -2.9737  -2.9718
    -1.6591  -1.6484  -1.4710  -1.4600  -1.2245  -1.2159  -1.0982  -1.0895
     3.3246   3.3261   3.4879   3.4913   3.7665   3.7732   3.9076   3.9132
     3.9531   3.9683   4.1806   4.1886   4.3576   4.3621   4.3718   4.3814
     4.5952   4.6007   4.7327   4.7362   4.8300   4.8335   4.9045   4.9122
     4.9909   4.9966   5.1726   5.1910   5.2666   5.2807   5.4108   5.4251
     5.4576   5.4718   5.7611   5.7726   5.8535   5.8736   6.1059   6.1267
     6.1478   6.1546   6.3174   6.3291   6.4155   6.4273   6.5190   6.5292
     6.6659   6.6699   6.9349   6.9443   7.0832   7.0925   7.2977   7.3054
     7.4783   7.4841   8.2034   8.2337   8.3179   8.3606   8.5989   8.6032
[...]
   -14.0023 -14.0018 -14.0005 -13.9999 -13.9992 -13.9984 -13.9979 -13.9968
   -13.9963 -13.9956 -13.9924 -13.9922 -13.9827 -13.9827 -13.9819 -13.9817
   -13.9755 -13.9754 -13.9753 -13.9753 -13.9742 -13.9742 -13.9645 -13.9644
    -5.3654  -5.3566  -5.3354  -5.3262  -5.1549  -5.1449  -5.1066  -5.0959
    -3.7568  -3.7560  -3.5539  -3.5515  -3.3147  -3.3140  -3.0627  -3.0614
    -1.5463  -1.5397  -1.2749  -1.2684  -0.9752  -0.9674  -0.7698  -0.7620
     3.5426   3.5438   3.8517   3.8564   4.0426   4.0459   4.2247   4.2291
     4.3482   4.3541   4.3897   4.3966   4.6586   4.6679   4.7388   4.7395
     4.7626   4.7669   4.9894   4.9929   5.0076   5.0148   5.1454   5.1462
     5.2888   5.2987   5.5391   5.5534   5.6172   5.6264   5.7546   5.7748
     5.9655   5.9927   6.0535   6.0624   6.0954   6.0998   6.2584   6.2619
     6.4168   6.4433   6.6223   6.6316   6.7897   6.8106   6.8400   6.8595
     6.9814   6.9884   7.1403   7.1491   7.2195   7.2279   7.3943   7.4085
     7.5158   7.5256   8.1296   8.1472   8.2577   8.2688   8.4542   8.4619
     8.5575   8.5638   8.7419   8.7460   8.7806   8.7851   9.0598   9.0646
     9.0862   9.0982   9.2495   9.2557   9.6030   9.6102   9.6774   9.6924
     9.7729   9.7774   9.9097   9.9159  10.1145  10.1185  10.1505  10.1559
    10.3110  10.3135  10.5321  10.5358  11.6932  11.6948  11.9130  11.9135
    12.2097  12.2119  12.5133  12.5170  12.7148  12.7527  12.8015  12.8271
    12.9213  12.9348  12.9812  12.9951  13.1864  13.1970  13.4021  13.4225
    13.5027  13.5053  13.5957  13.6201  13.7748  13.7931  13.8920  13.9106

          k = 0.4426 0.7665 0.0000 ( 23440 PWs)   bands (ev):

   -73.9939 -73.9884 -69.4223 -69.4170 -43.2473 -43.2422 -42.8328 -42.8272
   -42.3319 -42.3265 -38.6016 -38.5967 -38.1803 -38.1748 -37.8535 -37.8483
   -16.9865 -16.9865 -16.9811 -16.9811 -16.9788 -16.9788 -16.9741 -16.9740
   -16.9615 -16.9614 -16.9602 -16.9601 -16.9591 -16.9590 -16.9584 -16.9584
   -14.0024 -14.0021 -14.0005 -14.0001 -13.9991 -13.9986 -13.9978 -13.9970
   -13.9960 -13.9955 -13.9921 -13.9920 -13.9825 -13.9824 -13.9822 -13.9821
   -13.9756 -13.9755 -13.9751 -13.9750 -13.9746 -13.9745 -13.9647 -13.9646
    -5.4045  -5.3957  -5.3742  -5.3651  -5.1931  -5.1831  -5.1444  -5.1336
    -3.7843  -3.7835  -3.5791  -3.5767  -3.3350  -3.3343  -3.0789  -3.0776
    -1.5332  -1.5271  -1.2480  -1.2419  -0.9382  -0.9305  -0.7180  -0.7103
     3.5632   3.5642   3.8805   3.8852   4.0874   4.0907   4.2528   4.2570
     4.4379   4.4437   4.4635   4.4720   4.7258   4.7345   4.7693   4.7737
     4.7968   4.7989   5.0284   5.0303   5.0727   5.0787   5.2705   5.2735
     5.3991   5.4072   5.6486   5.6574   5.7003   5.7135   5.7974   5.8163
     6.0386   6.0641   6.0965   6.1048   6.1527   6.1631   6.3014   6.3109
     6.4545   6.4801   6.7008   6.7077   6.8672   6.8841   6.9023   6.9237
     7.0041   7.0090   7.1322   7.1408   7.2598   7.2652   7.4292   7.4481
     7.5424   7.5481   8.1007   8.1194   8.1721   8.1885   8.3953   8.4006
     8.4934   8.4954   8.7366   8.7407   8.7574   8.7619   9.0233   9.0278
     9.0901   9.0994   9.2311   9.2370   9.5096   9.5210   9.6270   9.6346
     9.7641   9.7665   9.8365   9.8459  10.0015  10.0070  10.0789  10.0816
    10.2958  10.2993  10.4390  10.4426  11.7053  11.7066  11.8434  11.8438
    12.1389  12.1412  12.5524  12.5571  12.7984  12.8061  12.8419  12.8599
    12.9475  12.9745  13.0229  13.0342  13.1846  13.1991  13.3837  13.3937
    13.4584  13.4677  13.6085  13.6241  13.7912  13.8180  13.8946  13.9089

          k = 0.3793 0.6570 0.0000 ( 23456 PWs)   bands (ev):

   -73.9939 -73.9884 -69.4223 -69.4170 -43.2473 -43.2421 -42.8328 -42.8272
   -42.3319 -42.3265 -38.6016 -38.5967 -38.1804 -38.1748 -37.8535 -37.8483
   -16.9867 -16.9866 -16.9812 -16.9812 -16.9789 -16.9788 -16.9741 -16.9740
   -16.9616 -16.9616 -16.9603 -16.9602 -16.9591 -16.9590 -16.9585 -16.9584
   -14.0026 -14.0023 -14.0006 -14.0004 -13.9991 -13.9988 -13.9977 -13.9972
   -13.9958 -13.9955 -13.9919 -13.9918 -13.9825 -13.9824 -13.9823 -13.9822
   -13.9758 -13.9756 -13.9749 -13.9749 -13.9748 -13.9748 -13.9649 -13.9647
    -5.4385  -5.4297  -5.4080  -5.3989  -5.2263  -5.2163  -5.1772  -5.1666
    -3.8085  -3.8077  -3.6014  -3.5990  -3.3530  -3.3523  -3.0934  -3.0921
    -1.5228  -1.5171  -1.2253  -1.2195  -0.9068  -0.8993  -0.6729  -0.6653
     3.5779   3.5788   3.9019   3.9063   4.1296   4.1332   4.2647   4.2689
     4.5164   4.5249   4.5581   4.5667   4.7679   4.7747   4.7824   4.7874
     4.8480   4.8518   5.0670   5.0699   5.1513   5.1574   5.3880   5.3919
     5.5049   5.5109   5.7260   5.7382   5.7993   5.8151   5.8407   5.8572
     6.0960   6.1052   6.1365   6.1549   6.2137   6.2233   6.3541   6.3728
     6.4892   6.5146   6.7806   6.7848   6.9237   6.9328   6.9860   6.9969
     7.0156   7.0186   7.1017   7.1074   7.2924   7.2970   7.4724   7.4899
     7.5775   7.5842   8.0626   8.0806   8.1073   8.1257   8.3193   8.3224
     8.4269   8.4284   8.7277   8.7311   8.7383   8.7419   8.9831   8.9869
     9.0889   9.0964   9.2127   9.2162   9.4391   9.4478   9.5609   9.5655
     9.7158   9.7230   9.8032   9.8099   9.9032   9.9089   9.9990  10.0013
    10.2848  10.2880  10.3525  10.3565  11.7138  11.7162  11.7793  11.7815
    12.0723  12.0748  12.6048  12.6100  12.7560  12.7693  12.8997  12.9333
    13.0142  13.0194  13.0821  13.0901  13.2177  13.2384  13.3337  13.3390
    13.4582  13.4749  13.5880  13.5994  13.8096  13.8414  13.8820  13.8858

          k = 0.3161 0.5475 0.0000 ( 23452 PWs)   bands (ev):

   -73.9939 -73.9884 -69.4223 -69.4170 -43.2473 -43.2421 -42.8328 -42.8272
   -42.3319 -42.3265 -38.6016 -38.5967 -38.1804 -38.1748 -37.8535 -37.8483
   -16.9868 -16.9867 -16.9813 -16.9813 -16.9788 -16.9788 -16.9741 -16.9740
   -16.9617 -16.9616 -16.9604 -16.9603 -16.9591 -16.9590 -16.9584 -16.9584
   -14.0027 -14.0026 -14.0007 -14.0006 -13.9992 -13.9990 -13.9977 -13.9974
   -13.9956 -13.9954 -13.9917 -13.9917 -13.9828 -13.9827 -13.9821 -13.9820
   -13.9759 -13.9758 -13.9751 -13.9750 -13.9747 -13.9747 -13.9650 -13.9649
    -5.4674  -5.4586  -5.4367  -5.4276  -5.2545  -5.2446  -5.2052  -5.1945
    -3.8293  -3.8285  -3.6205  -3.6181  -3.3685  -3.3679  -3.1060  -3.1048
    -1.5149  -1.5094  -1.2066  -1.2011  -0.8808  -0.8734  -0.6347  -0.6272
     3.5874   3.5881   3.9191   3.9232   4.1680   4.1719   4.2691   4.2732
     4.5786   4.5920   4.6544   4.6656   4.7886   4.7932   4.7969   4.8016
     4.9025   4.9063   5.1153   5.1212   5.2370   5.2440   5.4792   5.4824
     5.6024   5.6113   5.7826   5.7988   5.8854   5.8916   5.9116   5.9220
     6.1091   6.1142   6.2122   6.2241   6.2718   6.2749   6.4153   6.4451
     6.5229   6.5484   6.8497   6.8522   6.9378   6.9398   7.0121   7.0217
     7.0513   7.0655   7.1052   7.1164   7.3230   7.3260   7.5126   7.5242
     7.6065   7.6166   8.0091   8.0162   8.0909   8.0994   8.2285   8.2305
     8.3569   8.3598   8.7122   8.7159   8.7239   8.7272   8.9419   8.9452
     9.0854   9.0914   9.1654   9.1718   9.3967   9.4073   9.4965   9.5048
     9.6727   9.6823   9.7359   9.7439   9.8462   9.8504   9.9244   9.9284
    10.2248  10.2281  10.3311  10.3350  11.6782  11.6815  11.7563  11.7598
    12.0122  12.0145  12.6577  12.6627  12.7075  12.7190  12.9498  12.9647
    13.0147  13.0241  13.1448  13.1620  13.2801  13.2983  13.3544  13.3597
    13.4789  13.4942  13.5442  13.5560  13.8307  13.8411  13.8535  13.8834

          k = 0.2529 0.4380 0.0000 ( 23437 PWs)   bands (ev):

   -73.9939 -73.9884 -69.4223 -69.4170 -43.2473 -43.2421 -42.8328 -42.8272
   -42.3319 -42.3265 -38.6016 -38.5967 -38.1804 -38.1748 -37.8535 -37.8483
   -16.9868 -16.9867 -16.9814 -16.9813 -16.9788 -16.9787 -16.9740 -16.9740
   -16.9617 -16.9617 -16.9604 -16.9604 -16.9591 -16.9590 -16.9584 -16.9583
   -14.0028 -14.0027 -14.0008 -14.0007 -13.9992 -13.9991 -13.9977 -13.9975
   -13.9954 -13.9953 -13.9915 -13.9915 -13.9830 -13.9829 -13.9819 -13.9818
   -13.9760 -13.9759 -13.9753 -13.9752 -13.9745 -13.9745 -13.9651 -13.9650
    -5.4910  -5.4822  -5.4603  -5.4511  -5.2776  -5.2677  -5.2281  -5.2174
    -3.8464  -3.8456  -3.6364  -3.6340  -3.3814  -3.3808  -3.1165  -3.1153
    -1.5089  -1.5036  -1.1917  -1.1863  -0.8599  -0.8527  -0.6033  -0.5960
     3.5928   3.5934   3.9332   3.9372   4.2018   4.2060   4.2713   4.2753
     4.6143   4.6302   4.7500   4.7612   4.7978   4.8022   4.8136   4.8204
     4.9565   4.9594   5.1721   5.1810   5.3228   5.3303   5.5433   5.5457
     5.6762   5.6886   5.8444   5.8542   5.9331   5.9435   5.9983   6.0121
     6.1201   6.1237   6.2704   6.2714   6.3272   6.3381   6.4791   6.5219
     6.5550   6.5821   6.8781   6.8824   6.9500   6.9555   6.9719   6.9776
     7.0963   7.1139   7.1721   7.1822   7.3566   7.3611   7.5404   7.5457
     7.6319   7.6428   7.9670   7.9715   8.0780   8.0844   8.1315   8.1325
     8.2844   8.2872   8.6949   8.6991   8.7090   8.7125   8.9024   8.9055
     9.0804   9.0819   9.1030   9.1079   9.3497   9.3625   9.4833   9.4920
     9.6237   9.6348   9.6694   9.6772   9.7745   9.7779   9.8933   9.8978
    10.1417  10.1454  10.3510  10.3551  11.6151  11.6172  11.7565  11.7587
    11.9566  11.9593  12.6518  12.6573  12.7267  12.7288  12.9373  12.9433
    13.0114  13.0195  13.2091  13.2430  13.3599  13.3770  13.4337  13.4414
    13.4899  13.5016  13.5115  13.5174  13.7967  13.8160  13.8721  13.8941

          k = 0.1897 0.3285 0.0000 ( 23457 PWs)   bands (ev):

   -73.9939 -73.9884 -69.4223 -69.4170 -43.2472 -43.2421 -42.8328 -42.8272
   -42.3319 -42.3265 -38.6016 -38.5967 -38.1804 -38.1748 -37.8535 -37.8483
   -16.9869 -16.9869 -16.9815 -16.9815 -16.9788 -16.9787 -16.9741 -16.9739
   -16.9618 -16.9618 -16.9605 -16.9605 -16.9591 -16.9590 -16.9585 -16.9583
   -14.0030 -14.0029 -14.0009 -14.0009 -13.9993 -13.9991 -13.9977 -13.9976
   -13.9952 -13.9952 -13.9914 -13.9914 -13.9831 -13.9831 -13.9818 -13.9817
   -13.9761 -13.9761 -13.9754 -13.9752 -13.9744 -13.9744 -13.9652 -13.9650
    -5.5095  -5.5007  -5.4786  -5.4695  -5.2957  -5.2858  -5.2460  -5.2353
    -3.8599  -3.8591  -3.6488  -3.6464  -3.3916  -3.3910  -3.1249  -3.1236
    -1.5045  -1.4994  -1.1803  -1.1751  -0.8440  -0.8368  -0.5790  -0.5716
     3.5953   3.5961   3.9446   3.9484   4.2289   4.2332   4.2743   4.2781
     4.6305   4.6480   4.8003   4.8026   4.8097   4.8126   4.8530   4.8675
     5.0132   5.0171   5.2278   5.2396   5.4000   5.4068   5.5895   5.5915
     5.7132   5.7298   5.8965   5.9080   5.9948   6.0076   6.0552   6.0687
     6.1516   6.1554   6.2937   6.2966   6.3824   6.3928   6.5304   6.5784
     6.5916   6.6166   6.8561   6.8629   6.9421   6.9428   7.0191   7.0224
     7.1073   7.1244   7.2146   7.2201   7.4193   7.4260   7.5627   7.5666
     7.6542   7.6638   7.9248   7.9304   8.0422   8.0432   8.0613   8.0680
     8.2164   8.2180   8.6785   8.6830   8.6916   8.6948   8.8684   8.8714
     9.0214   9.0291   9.0900   9.0951   9.3118   9.3251   9.4893   9.4976
     9.5562   9.5632   9.6131   9.6207   9.7356   9.7407   9.8792   9.8844
    10.0645  10.0680  10.3802  10.3849  11.5551  11.5567  11.7521  11.7533
    11.9022  11.9057  12.6205  12.6272  12.7550  12.7570  12.9067  12.9116
    13.0440  13.0558  13.2889  13.3211  13.4100  13.4185  13.4571  13.4679
    13.5010  13.5068  13.5327  13.5561  13.7628  13.7888  13.8777  13.9040

          k = 0.1264 0.2190 0.0000 ( 23473 PWs)   bands (ev):

   -73.9939 -73.9884 -69.4224 -69.4170 -43.2472 -43.2421 -42.8328 -42.8272
   -42.3319 -42.3265 -38.6016 -38.5967 -38.1804 -38.1748 -37.8535 -37.8483
   -16.9870 -16.9869 -16.9816 -16.9815 -16.9789 -16.9787 -16.9741 -16.9739
   -16.9619 -16.9619 -16.9606 -16.9606 -16.9592 -16.9590 -16.9585 -16.9583
   -14.0031 -14.0031 -14.0010 -14.0010 -13.9993 -13.9992 -13.9978 -13.9976
   -13.9952 -13.9951 -13.9914 -13.9913 -13.9833 -13.9833 -13.9817 -13.9816
   -13.9763 -13.9762 -13.9755 -13.9753 -13.9744 -13.9743 -13.9653 -13.9651
    -5.5226  -5.5139  -5.4917  -5.4826  -5.3086  -5.2987  -5.2588  -5.2481
    -3.8695  -3.8687  -3.6578  -3.6554  -3.3989  -3.3983  -3.1309  -3.1297
    -1.5016  -1.4966  -1.1723  -1.1672  -0.8327  -0.8256  -0.5615  -0.5543
     3.5962   3.5971   3.9528   3.9567   4.2458   4.2504   4.2809   4.2843
     4.6357   4.6546   4.8052   4.8097   4.8172   4.8217   4.9041   4.9183
     5.0757   5.0840   5.2702   5.2850   5.4608   5.4652   5.6233   5.6261
     5.7231   5.7458   5.9259   5.9469   6.0554   6.0621   6.0976   6.1027
     6.2091   6.2117   6.3043   6.3078   6.4027   6.4122   6.5570   6.6042
     6.6262   6.6500   6.8244   6.8267   6.9763   6.9820   7.0374   7.0498
     7.1106   7.1139   7.2446   7.2503   7.5034   7.5080   7.5828   7.5876
     7.6655   7.6735   7.8710   7.8764   7.9681   7.9709   8.0398   8.0485
     8.1673   8.1681   8.6642   8.6689   8.6729   8.6757   8.8429   8.8460
     8.9664   8.9729   9.0950   9.1010   9.2970   9.3100   9.4604   9.4642
     9.4984   9.5075   9.5639   9.5753   9.7593   9.7635   9.8630   9.8696
     9.9960   9.9991  10.4093  10.4148  11.5067  11.5083  11.7470  11.7479
    11.8492  11.8535  12.5861  12.5916  12.7758  12.7786  12.8951  12.8985
    13.1166  13.1315  13.3435  13.3559  13.3962  13.3971  13.4620  13.4707
    13.4873  13.5119  13.6012  13.6428  13.7427  13.7698  13.8751  13.8929

          k = 0.0632 0.1095 0.0000 ( 23483 PWs)   bands (ev):

   -73.9939 -73.9884 -69.4224 -69.4170 -43.2472 -43.2421 -42.8328 -42.8272
   -42.3319 -42.3265 -38.6016 -38.5967 -38.1804 -38.1748 -37.8535 -37.8483
   -16.9871 -16.9870 -16.9816 -16.9816 -16.9789 -16.9787 -16.9741 -16.9739
   -16.9620 -16.9619 -16.9607 -16.9606 -16.9592 -16.9590 -16.9585 -16.9583
   -14.0032 -14.0031 -14.0011 -14.0010 -13.9994 -13.9992 -13.9978 -13.9976
   -13.9952 -13.9950 -13.9914 -13.9912 -13.9834 -13.9833 -13.9817 -13.9816
   -13.9764 -13.9763 -13.9756 -13.9753 -13.9743 -13.9742 -13.9654 -13.9651
    -5.5306  -5.5218  -5.4996  -5.4905  -5.3163  -5.3064  -5.2665  -5.2558
    -3.8753  -3.8745  -3.6632  -3.6608  -3.4033  -3.4027  -3.1346  -3.1333
    -1.5000  -1.4949  -1.1676  -1.1625  -0.8260  -0.8190  -0.5511  -0.5438
     3.5964   3.5974   3.9579   3.9617   4.2526   4.2573   4.2892   4.2924
     4.6363   4.6560   4.8077   4.8123   4.8209   4.8255   4.9321   4.9446
     5.1307   5.1438   5.2924   5.3096   5.4991   5.5006   5.6455   5.6532
     5.7174   5.7477   5.9439   5.9702   6.0723   6.0749   6.1477   6.1606
     6.2708   6.2728   6.3088   6.3126   6.3822   6.3907   6.5609   6.6258
     6.6309   6.6852   6.8056   6.8057   6.9798   6.9854   7.0471   7.0530
     7.1612   7.1655   7.2604   7.2681   7.5413   7.5435   7.6047   7.6153
     7.6851   7.6903   7.8360   7.8415   7.8900   7.8931   8.0248   8.0334
     8.1425   8.1438   8.6541   8.6578   8.6590   8.6602   8.8273   8.8305
     8.9335   8.9390   9.1032   9.1115   9.2990   9.3105   9.3983   9.4051
     9.4533   9.4725   9.5596   9.5709   9.8050   9.8089   9.8461   9.8544
     9.9371   9.9391  10.4306  10.4368  11.4755  11.4772  11.7494  11.7506
    11.8033  11.8079  12.5572  12.5619  12.7852  12.7923  12.9058  12.9103
    13.2064  13.2240  13.3415  13.3539  13.3674  13.3711  13.4251  13.4352
    13.4846  13.5551  13.6495  13.7150  13.7415  13.7601  13.8675  13.8740

          k = 0.0000 0.0000 0.0000 ( 23485 PWs)   bands (ev):

   -73.9939 -73.9884 -69.4224 -69.4170 -43.2472 -43.2421 -42.8328 -42.8272
   -42.3319 -42.3265 -38.6016 -38.5967 -38.1804 -38.1748 -37.8535 -37.8483
   -16.9871 -16.9870 -16.9817 -16.9815 -16.9789 -16.9786 -16.9741 -16.9739
   -16.9620 -16.9619 -16.9607 -16.9606 -16.9592 -16.9589 -16.9585 -16.9583
   -14.0033 -14.0032 -14.0012 -14.0010 -13.9994 -13.9992 -13.9979 -13.9976
   -13.9952 -13.9950 -13.9913 -13.9912 -13.9835 -13.9834 -13.9817 -13.9815
   -13.9765 -13.9763 -13.9756 -13.9753 -13.9743 -13.9742 -13.9654 -13.9651
    -5.5332  -5.5245  -5.5022  -5.4931  -5.3189  -5.3090  -5.2690  -5.2584
    -3.8773  -3.8765  -3.6650  -3.6626  -3.4048  -3.4042  -3.1358  -3.1346
    -1.4994  -1.4944  -1.1660  -1.1609  -0.8238  -0.8168  -0.5476  -0.5404
     3.5964   3.5974   3.9596   3.9634   4.2542   4.2589   4.2929   4.2960
     4.6360   4.6560   4.8084   4.8130   4.8220   4.8267   4.9406   4.9525
     5.1536   5.1688   5.2978   5.3158   5.5120   5.5122   5.6538   5.6669
     5.7099   5.7462   5.9504   5.9785   6.0748   6.0776   6.1686   6.1868
     6.3100   6.3139   6.3149   6.3227   6.3452   6.3553   6.5588   6.6281
     6.6360   6.7051   6.7987   6.7988   6.9514   6.9600   7.0853   7.0907
     7.1767   7.1816   7.2672   7.2756   7.5358   7.5388   7.6072   7.6186
     7.7301   7.7357   7.8270   7.8286   7.8352   7.8410   8.0192   8.0277
     8.1358   8.1371   8.6504   8.6520   8.6541   8.6554   8.8221   8.8253
     8.9230   8.9282   9.1081   9.1177   9.3035   9.3138   9.3700   9.3783
     9.4352   9.4573   9.5629   9.5734   9.8377   9.8383   9.8430   9.8475
     9.9020   9.9022  10.4385  10.4449  11.4647  11.4664  11.7598  11.7600
    11.7766  11.7827  12.5461  12.5506  12.7867  12.7949  12.9160  12.9215
    13.2780  13.3005  13.3045  13.3234  13.3629  13.3629  13.3818  13.4004
    13.4971  13.5758  13.6611  13.7437  13.7463  13.7643  13.8609  13.8629

     Writing all to output data dir ./tmp/MnBi2Te4.save/
 
     init_run     :      2.29s CPU      2.65s WALL (       1 calls)
     electrons    :  42872.60s CPU  44080.15s WALL (       1 calls)

     Called by init_run:
     wfcinit      :      0.00s CPU      0.00s WALL (       1 calls)
     wfcinit:atom :      0.10s CPU      0.15s WALL (     151 calls)
     wfcinit:wfcr :   1196.66s CPU   1226.29s WALL (     151 calls)
     potinit      :      1.00s CPU      1.19s WALL (       1 calls)
     hinit0       :      0.48s CPU      0.54s WALL (       1 calls)

     Called by electrons:
     c_bands      :  42872.60s CPU  44080.10s WALL (       1 calls)
     v_of_rho     :      0.24s CPU      0.34s WALL (       1 calls)
     v_h          :      0.01s CPU      0.01s WALL (       1 calls)
     v_xc         :      0.23s CPU      0.33s WALL (       1 calls)
     newd         :      0.59s CPU      0.67s WALL (       1 calls)
     PAW_pot      :      0.72s CPU      0.78s WALL (       1 calls)

     Called by c_bands:
     init_us_2    :      0.14s CPU      0.16s WALL (     151 calls)
     init_us_2:cp :      0.14s CPU      0.16s WALL (     151 calls)
     cegterg      :  41669.91s CPU  42846.59s WALL (     743 calls)

     Called by sum_band:

     Called by *egterg:
     cdiaghg      :    506.65s CPU    533.23s WALL (   13740 calls)
     cegterg:over :    450.10s CPU    499.90s WALL (   13589 calls)
     cegterg:upda :    238.75s CPU    251.47s WALL (   13589 calls)
     cegterg:last :    436.40s CPU    464.64s WALL (    5486 calls)
     cdiaghg:chol :     66.76s CPU     68.97s WALL (   13740 calls)
     cdiaghg:inve :      9.37s CPU      9.73s WALL (   13740 calls)
     cdiaghg:para :     95.24s CPU    107.80s WALL (   27480 calls)
     h_psi        :  40940.84s CPU  42016.68s WALL (   14483 calls)
     s_psi        :    138.77s CPU    141.17s WALL (   14483 calls)
     g_psi        :      2.03s CPU      2.06s WALL (   13589 calls)

     Called by h_psi:
     h_psi:calbec :    426.89s CPU    488.02s WALL (   14483 calls)
     vloc_psi     :  40383.22s CPU  41394.34s WALL (   14483 calls)
     add_vuspsi   :    127.34s CPU    130.27s WALL (   14483 calls)

     General routines
     calbec       :    426.79s CPU    487.95s WALL (   14483 calls)
     fft          :      0.11s CPU      0.15s WALL (      27 calls)
     fftw         :  35312.93s CPU  36281.26s WALL ( 4377684 calls)
     davcio       :      0.05s CPU      1.14s WALL (     302 calls)
 
     Parallel routines

     PAW routines
     PAW_pot      :      0.72s CPU      0.78s WALL (       1 calls)
 
     PWSCF        :     12h28m CPU     12h49m WALL

 
   This run was terminated on:  14: 4:21   1Jul2025            

=------------------------------------------------------------------------------=
   JOB DONE.
=------------------------------------------------------------------------------=
