
     Program PWSCF v.7.2 starts on 17Dec2025 at 18:52:38 

     This program is part of the open-source Quantum ESPRESSO suite
     for quantum simulation of materials; please cite
         "P. Giannozzi et al., J. Phys.:Condens. Matter 21 395502 (2009);
         "P. Giannozzi et al., J. Phys.:Condens. Matter 29 465901 (2017);
         "P. Giannozzi et al., J. Chem. Phys. 152 154105 (2020);
          URL http://www.quantum-espresso.org", 
     in publications or presentations arising from this work. More details at
     http://www.quantum-espresso.org/quote

     Parallel version (MPI), running on    64 processors

     MPI processes distributed on     1 nodes
     245367 MiB available memory on the printing compute node when the environment starts
 
     Reading input from MnBi2Te4.nscf.in

     Current dimensions of program PWSCF are:
     Max number of different atomic species (ntypx) = 10
     Max number of k-points (npk) =  40000
     Max angular momentum in pseudopotentials (lmaxx) =  4

     Atomic positions and unit cell read from directory:
     ./tmp/MnBi2Te4.save/
     Atomic positions from file used, from input discarded
 
     file Mn.rel-pbe-spn-kjpaw_psl.0.3.1.UPF: wavefunction(s)  3P 3P 3D renormalized
     file Mn.rel-pbe-spn-kjpaw_psl.0.3.1.UPF: wavefunction(s)  3P 3P 3D renormalized
     file Bi.rel-pbe-dn-kjpaw_psl.1.0.0.UPF: wavefunction(s)  6P 6P 5D 5D renormalized
     file Te.rel-pbe-n-kjpaw_psl.1.0.0.UPF: wavefunction(s)  5S 5P 5P renormalized

     Fixed quantization axis for GGA:     0.000000    0.000000    1.000000
 
     R & G space division:  proc/nbgrp/npool/nimage =      64
     Subspace diagonalization in iterative solution of the eigenvalue problem:
     one sub-group per band group will be used
     scalapack distributed-memory algorithm (size of sub-group:  2*  2 procs)

 
     Parallelization info
     --------------------
     sticks:   dense  smooth     PW     G-vecs:    dense   smooth      PW
     Min         126     126     38                 2936     2936     488
     Max         127     127     39                 2938     2938     489
     Sum        8079    8079   2441               187971   187971   31237
 
     Using Slab Decomposition
 


     bravais-lattice index     =            0
     lattice parameter (alat)  =      51.7756  a.u.
     unit-cell volume          =    2994.5794 (a.u.)^3
     number of atoms/cell      =           14
     number of atomic types    =            4
     number of electrons       =       138.00
     number of Kohn-Sham states=          240
     kinetic-energy cutoff     =      60.0000  Ry
     charge density cutoff     =     240.0000  Ry
     Exchange-correlation= SLA  PW   PBX  PBC
                           (   1   4   3   4   0   0   0)
     Noncollinear calculation with spin-orbit

     Hubbard projectors: ortho-atomic
     Hubbard parameters of DFT+U (Liechtenstein formulation) in eV:
     U(Mn1-3d) =  4.0000
     U(Mn2-3d) =  4.0000
     DFT+U on averaged j=l+1/2,l-1/2 radial WFs

     Internal variables: lda_plus_u = T, lda_plus_u_kind = 1

     celldm(1)=  51.775642  celldm(2)=   0.000000  celldm(3)=   0.000000
     celldm(4)=   0.000000  celldm(5)=   0.000000  celldm(6)=   0.000000

     crystal axes: (cart. coord. in units of alat)
               a(1) = (   0.079085  -0.045660   0.995822 )  
               a(2) = (   0.000000   0.091319   0.995822 )  
               a(3) = (  -0.079085  -0.045660   0.995822 )  

     reciprocal axes: (cart. coord. in units 2 pi/alat)
               b(1) = (  6.322314 -3.650196  0.334731 )  
               b(2) = (  0.000000  7.300392  0.334734 )  
               b(3) = ( -6.322314 -3.650196  0.334731 )  


     PseudoPot. # 1 for Mn read from file:
     ./Mn.rel-pbe-spn-kjpaw_psl.0.3.1.UPF
     MD5 check sum: dfba1c7561257014502ac20495784078
     Pseudo is Projector augmented-wave + core cor, Zval = 15.0
     Generated using &quot;atomic&quot; code by A. Dal Corso  v.6.2.2
     Shape of augmentation charge: PSQ
     Using radial grid of 1187 points, 10 beta functions with: 
                l(1) =   0
                l(2) =   0
                l(3) =   1
                l(4) =   1
                l(5) =   1
                l(6) =   1
                l(7) =   2
                l(8) =   2
                l(9) =   2
               l(10) =   2
     Q(r) pseudized with 0 coefficients 


     PseudoPot. # 2 for Mn read from file:
     ./Mn.rel-pbe-spn-kjpaw_psl.0.3.1.UPF
     MD5 check sum: dfba1c7561257014502ac20495784078
     Pseudo is Projector augmented-wave + core cor, Zval = 15.0
     Generated using &quot;atomic&quot; code by A. Dal Corso  v.6.2.2
     Shape of augmentation charge: PSQ
     Using radial grid of 1187 points, 10 beta functions with: 
                l(1) =   0
                l(2) =   0
                l(3) =   1
                l(4) =   1
                l(5) =   1
                l(6) =   1
                l(7) =   2
                l(8) =   2
                l(9) =   2
               l(10) =   2
     Q(r) pseudized with 0 coefficients 


     PseudoPot. # 3 for Bi read from file:
     ./Bi.rel-pbe-dn-kjpaw_psl.1.0.0.UPF
     MD5 check sum: 8010b987e9fb97324c8de82fb26a3f7d
     Pseudo is Projector augmented-wave + core cor, Zval = 15.0
     Generated using &quot;atomic&quot; code by A. Dal Corso  v.6.2.2
     Shape of augmentation charge: PSQ
     Using radial grid of 1283 points, 10 beta functions with: 
                l(1) =   0
                l(2) =   0
                l(3) =   1
                l(4) =   1
                l(5) =   1
                l(6) =   1
                l(7) =   2
                l(8) =   2
                l(9) =   2
               l(10) =   2
     Q(r) pseudized with 0 coefficients 


     PseudoPot. # 4 for Te read from file:
     ./Te.rel-pbe-n-kjpaw_psl.1.0.0.UPF
     MD5 check sum: 8399411061dffbb19b40ade5049f5146
     Pseudo is Projector augmented-wave + core cor, Zval =  6.0
     Generated using &quot;atomic&quot; code by A. Dal Corso  v.6.3
     Shape of augmentation charge: PSQ
     Using radial grid of 1245 points, 10 beta functions with: 
                l(1) =   0
                l(2) =   0
                l(3) =   1
                l(4) =   1
                l(5) =   1
                l(6) =   1
                l(7) =   2
                l(8) =   2
                l(9) =   2
               l(10) =   2
     Q(r) pseudized with 0 coefficients 


     atomic species   valence    mass     pseudopotential
        Mn1           15.00    54.93800     Mn( 1.00)
        Mn2           15.00    54.93800     Mn( 1.00)
        Bi            15.00   208.98000     Bi( 1.00)
        Te             6.00   127.60300     Te( 1.00)

     No symmetry found


                                    s                        frac. trans.

      isym =  1     identity                                     

 Time Reversal            0
 cryst.   s( 1) = (     1          0          0      )
                  (     0          1          0      )
                  (     0          0          1      )

 cart.    s( 1) = (  1.0000000  0.0000000  0.0000000 )
                  (  0.0000000  1.0000000  0.0000000 )
                  (  0.0000000  0.0000000  1.0000000 )


   Cartesian axes

     site n.     atom                  positions (alat units)
         1           Mn1 tau(   1) = (   0.0000000   0.0000000   0.0000000  )
         2           Mn2 tau(   2) = (   0.0000000   0.0000000   1.4937321  )
         3           Bi  tau(   3) = (   0.0000000   0.0000000   0.6350517  )
         4           Bi  tau(   4) = (   0.0000000   0.0000000   2.1280538  )
         5           Bi  tau(   5) = (   0.0000000   0.0000000   0.8586803  )
         6           Bi  tau(   6) = (   0.0000000   0.0000000   2.3531423  )
         7           Te  tau(   7) = (   0.0000000   0.0000000   0.1992041  )
         8           Te  tau(   8) = (   0.0000000   0.0000000   1.6929361  )
         9           Te  tau(   9) = (   0.0000000   0.0000000   1.2945279  )
        10           Te  tau(  10) = (   0.0000000   0.0000000   2.7882600  )
        11           Te  tau(  11) = (   0.0000000   0.0000000   0.4392469  )
        12           Te  tau(  12) = (   0.0000000   0.0000000   1.9329788  )
        13           Te  tau(  13) = (   0.0000000   0.0000000   1.0544852  )
        14           Te  tau(  14) = (   0.0000000   0.0000000   2.5482172  )

     --------------------------------------------
     DFT-D3 Dispersion Correction (3-body terms):
     --------------------------------------------
       Reference C6 values for interpolation: 

         atom   Coordination number   C6
         Mn1        0.000          1605.50
         Mn1        1.641           479.11
         Mn1        9.885           227.69
         Mn2        0.000          1605.50
         Mn2        1.641           479.11
         Mn2        9.885           227.69
         Te         0.000           851.07
         Te         0.981           850.20
         Te         1.964           837.16
         Bi         0.000          1235.06
         Bi         0.982          1188.09
         Bi         1.966          1132.10
         Bi         2.950          1067.76

       Values used:

         atom   Coordination number  R0_AB[au]  C6      C8
         Mn1        3.848            3.351    479.11  48433.79
         Mn2        3.848            3.351    479.11  48433.79
         Bi         5.262            3.890   1067.76 147315.96
         Bi         5.288            3.890   1067.76 147315.96
         Bi         5.262            3.890   1067.76 147315.96
         Bi         5.288            3.890   1067.76 147315.96
         Te         3.319            3.676    837.16  84978.06
         Te         3.337            3.676    837.16  84978.06
         Te         3.319            3.676    837.16  84978.06
         Te         3.337            3.676    837.16  84978.06
         Te         4.259            3.676    837.16  84978.05
         Te         4.216            3.676    837.16  84978.05
         Te         4.259            3.676    837.16  84978.05
         Te         4.216            3.676    837.16  84978.05

         Molecular C6 ( Ry / a.u.^6 ) =    164642.77


   Crystallographic axes

     site n.     atom                  positions (cryst. coord.)
         1           Mn1 tau(   1) = (  0.0000000  0.0000000  0.0000000  )
         2           Mn2 tau(   2) = (  0.4999980  0.5000035  0.4999980  )
         3           Bi  tau(   3) = (  0.2125713  0.2125737  0.2125713  )
         4           Bi  tau(   4) = (  0.7123250  0.7123328  0.7123250  )
         5           Bi  tau(   5) = (  0.2874267  0.2874298  0.2874267  )
         6           Bi  tau(   6) = (  0.7876691  0.7876777  0.7876691  )
         7           Te  tau(   7) = (  0.0666798  0.0666805  0.0666798  )
         8           Te  tau(   8) = (  0.5666778  0.5666840  0.5666778  )
         9           Te  tau(   9) = (  0.4333183  0.4333230  0.4333183  )
        10           Te  tau(  10) = (  0.9333163  0.9333266  0.9333163  )
        11           Te  tau(  11) = (  0.1470294  0.1470310  0.1470294  )
        12           Te  tau(  12) = (  0.6470274  0.6470345  0.6470274  )
        13           Te  tau(  13) = (  0.3529686  0.3529725  0.3529686  )
        14           Te  tau(  14) = (  0.8529666  0.8529760  0.8529666  )

     number of k points=   512  Marzari-Vanderbilt smearing, width (Ry)=  0.0100
                       cart. coord. in units 2pi/alat
        k(    1) = (   0.0000000   0.0000000   0.0000000), wk =   0.0019531
        k(    2) = (  -0.7902892  -0.4562745   0.0418413), wk =   0.0019531
        k(    3) = (  -1.5805784  -0.9125490   0.0836827), wk =   0.0019531
        k(    4) = (  -2.3708677  -1.3688235   0.1255240), wk =   0.0019531
        k(    5) = (  -3.1611569  -1.8250979   0.1673654), wk =   0.0019531
        k(    6) = (  -3.9514461  -2.2813724   0.2092067), wk =   0.0019531
        k(    7) = (  -4.7417353  -2.7376469   0.2510481), wk =   0.0019531
        k(    8) = (  -5.5320245  -3.1939214   0.2928894), wk =   0.0019531
        k(    9) = (   0.0000000   0.9125490   0.0418418), wk =   0.0019531
        k(   10) = (  -0.7902892   0.4562745   0.0836831), wk =   0.0019531
        k(   11) = (  -1.5805784   0.0000000   0.1255245), wk =   0.0019531
        k(   12) = (  -2.3708677  -0.4562745   0.1673658), wk =   0.0019531
        k(   13) = (  -3.1611569  -0.9125490   0.2092072), wk =   0.0019531
        k(   14) = (  -3.9514461  -1.3688235   0.2510485), wk =   0.0019531
        k(   15) = (  -4.7417353  -1.8250979   0.2928899), wk =   0.0019531
        k(   16) = (  -5.5320245  -2.2813724   0.3347312), wk =   0.0019531
        k(   17) = (   0.0000000   1.8250979   0.0836836), wk =   0.0019531
        k(   18) = (  -0.7902892   1.3688235   0.1255249), wk =   0.0019531
        k(   19) = (  -1.5805784   0.9125490   0.1673663), wk =   0.0019531
        k(   20) = (  -2.3708677   0.4562745   0.2092076), wk =   0.0019531
        k(   21) = (  -3.1611569   0.0000000   0.2510490), wk =   0.0019531
        k(   22) = (  -3.9514461  -0.4562745   0.2928903), wk =   0.0019531
        k(   23) = (  -4.7417353  -0.9125490   0.3347317), wk =   0.0019531
        k(   24) = (  -5.5320245  -1.3688235   0.3765730), wk =   0.0019531
        k(   25) = (   0.0000000   2.7376469   0.1255254), wk =   0.0019531
        k(   26) = (  -0.7902892   2.2813724   0.1673667), wk =   0.0019531
        k(   27) = (  -1.5805784   1.8250979   0.2092081), wk =   0.0019531
        k(   28) = (  -2.3708677   1.3688235   0.2510494), wk =   0.0019531
        k(   29) = (  -3.1611569   0.9125490   0.2928908), wk =   0.0019531
        k(   30) = (  -3.9514461   0.4562745   0.3347321), wk =   0.0019531
        k(   31) = (  -4.7417353   0.0000000   0.3765735), wk =   0.0019531
        k(   32) = (  -5.5320245  -0.4562745   0.4184148), wk =   0.0019531
        k(   33) = (   0.0000000   3.6501959   0.1673672), wk =   0.0019531
        k(   34) = (  -0.7902892   3.1939214   0.2092085), wk =   0.0019531
        k(   35) = (  -1.5805784   2.7376469   0.2510499), wk =   0.0019531
        k(   36) = (  -2.3708677   2.2813724   0.2928912), wk =   0.0019531
        k(   37) = (  -3.1611569   1.8250979   0.3347326), wk =   0.0019531
        k(   38) = (  -3.9514461   1.3688235   0.3765739), wk =   0.0019531
        k(   39) = (  -4.7417353   0.9125490   0.4184153), wk =   0.0019531
        k(   40) = (  -5.5320245   0.4562745   0.4602566), wk =   0.0019531
        k(   41) = (   0.0000000   4.5627449   0.2092090), wk =   0.0019531
        k(   42) = (  -0.7902892   4.1064704   0.2510503), wk =   0.0019531
        k(   43) = (  -1.5805784   3.6501959   0.2928917), wk =   0.0019531
        k(   44) = (  -2.3708677   3.1939214   0.3347330), wk =   0.0019531
        k(   45) = (  -3.1611569   2.7376469   0.3765744), wk =   0.0019531
        k(   46) = (  -3.9514461   2.2813724   0.4184157), wk =   0.0019531
        k(   47) = (  -4.7417353   1.8250979   0.4602571), wk =   0.0019531
        k(   48) = (  -5.5320245   1.3688235   0.5020984), wk =   0.0019531
        k(   49) = (   0.0000000   5.4752938   0.2510508), wk =   0.0019531
        k(   50) = (  -0.7902892   5.0190193   0.2928921), wk =   0.0019531
        k(   51) = (  -1.5805784   4.5627449   0.3347335), wk =   0.0019531
        k(   52) = (  -2.3708677   4.1064704   0.3765748), wk =   0.0019531
        k(   53) = (  -3.1611569   3.6501959   0.4184162), wk =   0.0019531
        k(   54) = (  -3.9514461   3.1939214   0.4602575), wk =   0.0019531
        k(   55) = (  -4.7417353   2.7376469   0.5020989), wk =   0.0019531
        k(   56) = (  -5.5320245   2.2813724   0.5439402), wk =   0.0019531
        k(   57) = (   0.0000000   6.3878428   0.2928926), wk =   0.0019531
        k(   58) = (  -0.7902892   5.9315683   0.3347340), wk =   0.0019531
        k(   59) = (  -1.5805784   5.4752938   0.3765753), wk =   0.0019531
        k(   60) = (  -2.3708677   5.0190193   0.4184166), wk =   0.0019531
        k(   61) = (  -3.1611569   4.5627449   0.4602580), wk =   0.0019531
        k(   62) = (  -3.9514461   4.1064704   0.5020993), wk =   0.0019531
        k(   63) = (  -4.7417353   3.6501959   0.5439407), wk =   0.0019531
        k(   64) = (  -5.5320245   3.1939214   0.5857820), wk =   0.0019531
        k(   65) = (   0.7902892  -0.4562745   0.0418413), wk =   0.0019531
        k(   66) = (   0.0000000  -0.9125490   0.0836827), wk =   0.0019531
        k(   67) = (  -0.7902892  -1.3688235   0.1255240), wk =   0.0019531
        k(   68) = (  -1.5805784  -1.8250979   0.1673654), wk =   0.0019531
        k(   69) = (  -2.3708677  -2.2813724   0.2092067), wk =   0.0019531
        k(   70) = (  -3.1611569  -2.7376469   0.2510481), wk =   0.0019531
        k(   71) = (  -3.9514461  -3.1939214   0.2928894), wk =   0.0019531
        k(   72) = (  -4.7417353  -3.6501959   0.3347307), wk =   0.0019531
        k(   73) = (   0.7902892   0.4562745   0.0836831), wk =   0.0019531
        k(   74) = (   0.0000000   0.0000000   0.1255245), wk =   0.0019531
        k(   75) = (  -0.7902892  -0.4562745   0.1673658), wk =   0.0019531
        k(   76) = (  -1.5805784  -0.9125490   0.2092072), wk =   0.0019531
        k(   77) = (  -2.3708677  -1.3688235   0.2510485), wk =   0.0019531
        k(   78) = (  -3.1611569  -1.8250979   0.2928899), wk =   0.0019531
        k(   79) = (  -3.9514461  -2.2813724   0.3347312), wk =   0.0019531
        k(   80) = (  -4.7417353  -2.7376469   0.3765725), wk =   0.0019531
        k(   81) = (   0.7902892   1.3688235   0.1255249), wk =   0.0019531
        k(   82) = (   0.0000000   0.9125490   0.1673663), wk =   0.0019531
        k(   83) = (  -0.7902892   0.4562745   0.2092076), wk =   0.0019531
        k(   84) = (  -1.5805784   0.0000000   0.2510490), wk =   0.0019531
        k(   85) = (  -2.3708677  -0.4562745   0.2928903), wk =   0.0019531
        k(   86) = (  -3.1611569  -0.9125490   0.3347317), wk =   0.0019531
        k(   87) = (  -3.9514461  -1.3688235   0.3765730), wk =   0.0019531
        k(   88) = (  -4.7417353  -1.8250979   0.4184143), wk =   0.0019531
        k(   89) = (   0.7902892   2.2813724   0.1673667), wk =   0.0019531
        k(   90) = (   0.0000000   1.8250979   0.2092081), wk =   0.0019531
        k(   91) = (  -0.7902892   1.3688235   0.2510494), wk =   0.0019531
        k(   92) = (  -1.5805784   0.9125490   0.2928908), wk =   0.0019531
        k(   93) = (  -2.3708677   0.4562745   0.3347321), wk =   0.0019531
        k(   94) = (  -3.1611569   0.0000000   0.3765735), wk =   0.0019531
        k(   95) = (  -3.9514461  -0.4562745   0.4184148), wk =   0.0019531
        k(   96) = (  -4.7417353  -0.9125490   0.4602561), wk =   0.0019531
        k(   97) = (   0.7902892   3.1939214   0.2092085), wk =   0.0019531
        k(   98) = (   0.0000000   2.7376469   0.2510499), wk =   0.0019531
        k(   99) = (  -0.7902892   2.2813724   0.2928912), wk =   0.0019531
        k(  100) = (  -1.5805784   1.8250979   0.3347326), wk =   0.0019531
        k(  101) = (  -2.3708677   1.3688235   0.3765739), wk =   0.0019531
        k(  102) = (  -3.1611569   0.9125490   0.4184153), wk =   0.0019531
        k(  103) = (  -3.9514461   0.4562745   0.4602566), wk =   0.0019531
        k(  104) = (  -4.7417353   0.0000000   0.5020979), wk =   0.0019531
        k(  105) = (   0.7902892   4.1064704   0.2510503), wk =   0.0019531
        k(  106) = (   0.0000000   3.6501959   0.2928917), wk =   0.0019531
        k(  107) = (  -0.7902892   3.1939214   0.3347330), wk =   0.0019531
        k(  108) = (  -1.5805784   2.7376469   0.3765744), wk =   0.0019531
        k(  109) = (  -2.3708677   2.2813724   0.4184157), wk =   0.0019531
        k(  110) = (  -3.1611569   1.8250979   0.4602571), wk =   0.0019531
        k(  111) = (  -3.9514461   1.3688235   0.5020984), wk =   0.0019531
        k(  112) = (  -4.7417353   0.9125490   0.5439397), wk =   0.0019531
        k(  113) = (   0.7902892   5.0190193   0.2928921), wk =   0.0019531
        k(  114) = (   0.0000000   4.5627449   0.3347335), wk =   0.0019531
        k(  115) = (  -0.7902892   4.1064704   0.3765748), wk =   0.0019531
        k(  116) = (  -1.5805784   3.6501959   0.4184162), wk =   0.0019531
        k(  117) = (  -2.3708677   3.1939214   0.4602575), wk =   0.0019531
        k(  118) = (  -3.1611569   2.7376469   0.5020989), wk =   0.0019531
        k(  119) = (  -3.9514461   2.2813724   0.5439402), wk =   0.0019531
        k(  120) = (  -4.7417353   1.8250979   0.5857815), wk =   0.0019531
        k(  121) = (   0.7902892   5.9315683   0.3347340), wk =   0.0019531
        k(  122) = (   0.0000000   5.4752938   0.3765753), wk =   0.0019531
        k(  123) = (  -0.7902892   5.0190193   0.4184166), wk =   0.0019531
        k(  124) = (  -1.5805784   4.5627449   0.4602580), wk =   0.0019531
        k(  125) = (  -2.3708677   4.1064704   0.5020993), wk =   0.0019531
        k(  126) = (  -3.1611569   3.6501959   0.5439407), wk =   0.0019531
        k(  127) = (  -3.9514461   3.1939214   0.5857820), wk =   0.0019531
        k(  128) = (  -4.7417353   2.7376469   0.6276234), wk =   0.0019531
        k(  129) = (   1.5805784  -0.9125490   0.0836827), wk =   0.0019531
        k(  130) = (   0.7902892  -1.3688235   0.1255240), wk =   0.0019531
        k(  131) = (   0.0000000  -1.8250979   0.1673654), wk =   0.0019531
        k(  132) = (  -0.7902892  -2.2813724   0.2092067), wk =   0.0019531
        k(  133) = (  -1.5805784  -2.7376469   0.2510481), wk =   0.0019531
        k(  134) = (  -2.3708677  -3.1939214   0.2928894), wk =   0.0019531
        k(  135) = (  -3.1611569  -3.6501959   0.3347307), wk =   0.0019531
        k(  136) = (  -3.9514461  -4.1064704   0.3765721), wk =   0.0019531
        k(  137) = (   1.5805784   0.0000000   0.1255245), wk =   0.0019531
        k(  138) = (   0.7902892  -0.4562745   0.1673658), wk =   0.0019531
        k(  139) = (   0.0000000  -0.9125490   0.2092072), wk =   0.0019531
        k(  140) = (  -0.7902892  -1.3688235   0.2510485), wk =   0.0019531
        k(  141) = (  -1.5805784  -1.8250979   0.2928899), wk =   0.0019531
        k(  142) = (  -2.3708677  -2.2813724   0.3347312), wk =   0.0019531
        k(  143) = (  -3.1611569  -2.7376469   0.3765725), wk =   0.0019531
        k(  144) = (  -3.9514461  -3.1939214   0.4184139), wk =   0.0019531
        k(  145) = (   1.5805784   0.9125490   0.1673663), wk =   0.0019531
        k(  146) = (   0.7902892   0.4562745   0.2092076), wk =   0.0019531
        k(  147) = (   0.0000000   0.0000000   0.2510490), wk =   0.0019531
        k(  148) = (  -0.7902892  -0.4562745   0.2928903), wk =   0.0019531
        k(  149) = (  -1.5805784  -0.9125490   0.3347317), wk =   0.0019531
        k(  150) = (  -2.3708677  -1.3688235   0.3765730), wk =   0.0019531
        k(  151) = (  -3.1611569  -1.8250979   0.4184143), wk =   0.0019531
        k(  152) = (  -3.9514461  -2.2813724   0.4602557), wk =   0.0019531
        k(  153) = (   1.5805784   1.8250979   0.2092081), wk =   0.0019531
        k(  154) = (   0.7902892   1.3688235   0.2510494), wk =   0.0019531
        k(  155) = (   0.0000000   0.9125490   0.2928908), wk =   0.0019531
        k(  156) = (  -0.7902892   0.4562745   0.3347321), wk =   0.0019531
        k(  157) = (  -1.5805784   0.0000000   0.3765735), wk =   0.0019531
        k(  158) = (  -2.3708677  -0.4562745   0.4184148), wk =   0.0019531
        k(  159) = (  -3.1611569  -0.9125490   0.4602561), wk =   0.0019531
        k(  160) = (  -3.9514461  -1.3688235   0.5020975), wk =   0.0019531
        k(  161) = (   1.5805784   2.7376469   0.2510499), wk =   0.0019531
        k(  162) = (   0.7902892   2.2813724   0.2928912), wk =   0.0019531
        k(  163) = (   0.0000000   1.8250979   0.3347326), wk =   0.0019531
        k(  164) = (  -0.7902892   1.3688235   0.3765739), wk =   0.0019531
        k(  165) = (  -1.5805784   0.9125490   0.4184153), wk =   0.0019531
        k(  166) = (  -2.3708677   0.4562745   0.4602566), wk =   0.0019531
        k(  167) = (  -3.1611569   0.0000000   0.5020979), wk =   0.0019531
        k(  168) = (  -3.9514461  -0.4562745   0.5439393), wk =   0.0019531
        k(  169) = (   1.5805784   3.6501959   0.2928917), wk =   0.0019531
        k(  170) = (   0.7902892   3.1939214   0.3347330), wk =   0.0019531
        k(  171) = (   0.0000000   2.7376469   0.3765744), wk =   0.0019531
        k(  172) = (  -0.7902892   2.2813724   0.4184157), wk =   0.0019531
        k(  173) = (  -1.5805784   1.8250979   0.4602571), wk =   0.0019531
        k(  174) = (  -2.3708677   1.3688235   0.5020984), wk =   0.0019531
        k(  175) = (  -3.1611569   0.9125490   0.5439397), wk =   0.0019531
        k(  176) = (  -3.9514461   0.4562745   0.5857811), wk =   0.0019531
        k(  177) = (   1.5805784   4.5627449   0.3347335), wk =   0.0019531
        k(  178) = (   0.7902892   4.1064704   0.3765748), wk =   0.0019531
        k(  179) = (   0.0000000   3.6501959   0.4184162), wk =   0.0019531
        k(  180) = (  -0.7902892   3.1939214   0.4602575), wk =   0.0019531
        k(  181) = (  -1.5805784   2.7376469   0.5020989), wk =   0.0019531
        k(  182) = (  -2.3708677   2.2813724   0.5439402), wk =   0.0019531
        k(  183) = (  -3.1611569   1.8250979   0.5857815), wk =   0.0019531
        k(  184) = (  -3.9514461   1.3688235   0.6276229), wk =   0.0019531
        k(  185) = (   1.5805784   5.4752938   0.3765753), wk =   0.0019531
        k(  186) = (   0.7902892   5.0190193   0.4184166), wk =   0.0019531
        k(  187) = (   0.0000000   4.5627449   0.4602580), wk =   0.0019531
        k(  188) = (  -0.7902892   4.1064704   0.5020993), wk =   0.0019531
        k(  189) = (  -1.5805784   3.6501959   0.5439407), wk =   0.0019531
        k(  190) = (  -2.3708677   3.1939214   0.5857820), wk =   0.0019531
        k(  191) = (  -3.1611569   2.7376469   0.6276234), wk =   0.0019531
        k(  192) = (  -3.9514461   2.2813724   0.6694647), wk =   0.0019531
        k(  193) = (   2.3708677  -1.3688235   0.1255240), wk =   0.0019531
        k(  194) = (   1.5805784  -1.8250979   0.1673654), wk =   0.0019531
        k(  195) = (   0.7902892  -2.2813724   0.2092067), wk =   0.0019531
        k(  196) = (   0.0000000  -2.7376469   0.2510481), wk =   0.0019531
        k(  197) = (  -0.7902892  -3.1939214   0.2928894), wk =   0.0019531
        k(  198) = (  -1.5805784  -3.6501959   0.3347307), wk =   0.0019531
        k(  199) = (  -2.3708677  -4.1064704   0.3765721), wk =   0.0019531
        k(  200) = (  -3.1611569  -4.5627449   0.4184134), wk =   0.0019531
        k(  201) = (   2.3708677  -0.4562745   0.1673658), wk =   0.0019531
        k(  202) = (   1.5805784  -0.9125490   0.2092072), wk =   0.0019531
        k(  203) = (   0.7902892  -1.3688235   0.2510485), wk =   0.0019531
        k(  204) = (   0.0000000  -1.8250979   0.2928899), wk =   0.0019531
        k(  205) = (  -0.7902892  -2.2813724   0.3347312), wk =   0.0019531
        k(  206) = (  -1.5805784  -2.7376469   0.3765725), wk =   0.0019531
        k(  207) = (  -2.3708677  -3.1939214   0.4184139), wk =   0.0019531
        k(  208) = (  -3.1611569  -3.6501959   0.4602552), wk =   0.0019531
        k(  209) = (   2.3708677   0.4562745   0.2092076), wk =   0.0019531
        k(  210) = (   1.5805784  -0.0000000   0.2510490), wk =   0.0019531
        k(  211) = (   0.7902892  -0.4562745   0.2928903), wk =   0.0019531
        k(  212) = (   0.0000000  -0.9125490   0.3347317), wk =   0.0019531
        k(  213) = (  -0.7902892  -1.3688235   0.3765730), wk =   0.0019531
        k(  214) = (  -1.5805784  -1.8250979   0.4184143), wk =   0.0019531
        k(  215) = (  -2.3708677  -2.2813724   0.4602557), wk =   0.0019531
        k(  216) = (  -3.1611569  -2.7376469   0.5020970), wk =   0.0019531
        k(  217) = (   2.3708677   1.3688235   0.2510494), wk =   0.0019531
        k(  218) = (   1.5805784   0.9125490   0.2928908), wk =   0.0019531
        k(  219) = (   0.7902892   0.4562745   0.3347321), wk =   0.0019531
        k(  220) = (   0.0000000   0.0000000   0.3765735), wk =   0.0019531
        k(  221) = (  -0.7902892  -0.4562745   0.4184148), wk =   0.0019531
        k(  222) = (  -1.5805784  -0.9125490   0.4602561), wk =   0.0019531
        k(  223) = (  -2.3708677  -1.3688235   0.5020975), wk =   0.0019531
        k(  224) = (  -3.1611569  -1.8250979   0.5439388), wk =   0.0019531
        k(  225) = (   2.3708677   2.2813724   0.2928912), wk =   0.0019531
        k(  226) = (   1.5805784   1.8250979   0.3347326), wk =   0.0019531
        k(  227) = (   0.7902892   1.3688235   0.3765739), wk =   0.0019531
        k(  228) = (   0.0000000   0.9125490   0.4184153), wk =   0.0019531
        k(  229) = (  -0.7902892   0.4562745   0.4602566), wk =   0.0019531
        k(  230) = (  -1.5805784   0.0000000   0.5020979), wk =   0.0019531
        k(  231) = (  -2.3708677  -0.4562745   0.5439393), wk =   0.0019531
        k(  232) = (  -3.1611569  -0.9125490   0.5857806), wk =   0.0019531
        k(  233) = (   2.3708677   3.1939214   0.3347330), wk =   0.0019531
        k(  234) = (   1.5805784   2.7376469   0.3765744), wk =   0.0019531
        k(  235) = (   0.7902892   2.2813724   0.4184157), wk =   0.0019531
        k(  236) = (   0.0000000   1.8250979   0.4602571), wk =   0.0019531
        k(  237) = (  -0.7902892   1.3688235   0.5020984), wk =   0.0019531
        k(  238) = (  -1.5805784   0.9125490   0.5439397), wk =   0.0019531
        k(  239) = (  -2.3708677   0.4562745   0.5857811), wk =   0.0019531
        k(  240) = (  -3.1611569  -0.0000000   0.6276224), wk =   0.0019531
        k(  241) = (   2.3708677   4.1064704   0.3765748), wk =   0.0019531
        k(  242) = (   1.5805784   3.6501959   0.4184162), wk =   0.0019531
        k(  243) = (   0.7902892   3.1939214   0.4602575), wk =   0.0019531
        k(  244) = (   0.0000000   2.7376469   0.5020989), wk =   0.0019531
        k(  245) = (  -0.7902892   2.2813724   0.5439402), wk =   0.0019531
        k(  246) = (  -1.5805784   1.8250979   0.5857815), wk =   0.0019531
        k(  247) = (  -2.3708677   1.3688235   0.6276229), wk =   0.0019531
        k(  248) = (  -3.1611569   0.9125490   0.6694642), wk =   0.0019531
        k(  249) = (   2.3708677   5.0190193   0.4184166), wk =   0.0019531
        k(  250) = (   1.5805784   4.5627449   0.4602580), wk =   0.0019531
        k(  251) = (   0.7902892   4.1064704   0.5020993), wk =   0.0019531
        k(  252) = (   0.0000000   3.6501959   0.5439407), wk =   0.0019531
        k(  253) = (  -0.7902892   3.1939214   0.5857820), wk =   0.0019531
        k(  254) = (  -1.5805784   2.7376469   0.6276234), wk =   0.0019531
        k(  255) = (  -2.3708677   2.2813724   0.6694647), wk =   0.0019531
        k(  256) = (  -3.1611569   1.8250979   0.7113060), wk =   0.0019531
        k(  257) = (   3.1611569  -1.8250979   0.1673654), wk =   0.0019531
        k(  258) = (   2.3708677  -2.2813724   0.2092067), wk =   0.0019531
        k(  259) = (   1.5805784  -2.7376469   0.2510481), wk =   0.0019531
        k(  260) = (   0.7902892  -3.1939214   0.2928894), wk =   0.0019531
        k(  261) = (   0.0000000  -3.6501959   0.3347307), wk =   0.0019531
        k(  262) = (  -0.7902892  -4.1064704   0.3765721), wk =   0.0019531
        k(  263) = (  -1.5805784  -4.5627449   0.4184134), wk =   0.0019531
        k(  264) = (  -2.3708677  -5.0190193   0.4602548), wk =   0.0019531
        k(  265) = (   3.1611569  -0.9125490   0.2092072), wk =   0.0019531
        k(  266) = (   2.3708677  -1.3688235   0.2510485), wk =   0.0019531
        k(  267) = (   1.5805784  -1.8250979   0.2928899), wk =   0.0019531
        k(  268) = (   0.7902892  -2.2813724   0.3347312), wk =   0.0019531
        k(  269) = (   0.0000000  -2.7376469   0.3765725), wk =   0.0019531
        k(  270) = (  -0.7902892  -3.1939214   0.4184139), wk =   0.0019531
        k(  271) = (  -1.5805784  -3.6501959   0.4602552), wk =   0.0019531
        k(  272) = (  -2.3708677  -4.1064704   0.5020966), wk =   0.0019531
        k(  273) = (   3.1611569   0.0000000   0.2510490), wk =   0.0019531
        k(  274) = (   2.3708677  -0.4562745   0.2928903), wk =   0.0019531
        k(  275) = (   1.5805784  -0.9125490   0.3347317), wk =   0.0019531
        k(  276) = (   0.7902892  -1.3688235   0.3765730), wk =   0.0019531
        k(  277) = (   0.0000000  -1.8250979   0.4184143), wk =   0.0019531
        k(  278) = (  -0.7902892  -2.2813724   0.4602557), wk =   0.0019531
        k(  279) = (  -1.5805784  -2.7376469   0.5020970), wk =   0.0019531
        k(  280) = (  -2.3708677  -3.1939214   0.5439384), wk =   0.0019531
        k(  281) = (   3.1611569   0.9125490   0.2928908), wk =   0.0019531
        k(  282) = (   2.3708677   0.4562745   0.3347321), wk =   0.0019531
        k(  283) = (   1.5805784   0.0000000   0.3765735), wk =   0.0019531
        k(  284) = (   0.7902892  -0.4562745   0.4184148), wk =   0.0019531
        k(  285) = (   0.0000000  -0.9125490   0.4602561), wk =   0.0019531
        k(  286) = (  -0.7902892  -1.3688235   0.5020975), wk =   0.0019531
        k(  287) = (  -1.5805784  -1.8250979   0.5439388), wk =   0.0019531
        k(  288) = (  -2.3708677  -2.2813724   0.5857802), wk =   0.0019531
        k(  289) = (   3.1611569   1.8250979   0.3347326), wk =   0.0019531
        k(  290) = (   2.3708677   1.3688235   0.3765739), wk =   0.0019531
        k(  291) = (   1.5805784   0.9125490   0.4184153), wk =   0.0019531
        k(  292) = (   0.7902892   0.4562745   0.4602566), wk =   0.0019531
        k(  293) = (   0.0000000   0.0000000   0.5020979), wk =   0.0019531
        k(  294) = (  -0.7902892  -0.4562745   0.5439393), wk =   0.0019531
        k(  295) = (  -1.5805784  -0.9125490   0.5857806), wk =   0.0019531
        k(  296) = (  -2.3708677  -1.3688235   0.6276220), wk =   0.0019531
        k(  297) = (   3.1611569   2.7376469   0.3765744), wk =   0.0019531
        k(  298) = (   2.3708677   2.2813724   0.4184157), wk =   0.0019531
        k(  299) = (   1.5805784   1.8250979   0.4602571), wk =   0.0019531
        k(  300) = (   0.7902892   1.3688235   0.5020984), wk =   0.0019531
        k(  301) = (   0.0000000   0.9125490   0.5439397), wk =   0.0019531
        k(  302) = (  -0.7902892   0.4562745   0.5857811), wk =   0.0019531
        k(  303) = (  -1.5805784  -0.0000000   0.6276224), wk =   0.0019531
        k(  304) = (  -2.3708677  -0.4562745   0.6694638), wk =   0.0019531
        k(  305) = (   3.1611569   3.6501959   0.4184162), wk =   0.0019531
        k(  306) = (   2.3708677   3.1939214   0.4602575), wk =   0.0019531
        k(  307) = (   1.5805784   2.7376469   0.5020989), wk =   0.0019531
        k(  308) = (   0.7902892   2.2813724   0.5439402), wk =   0.0019531
        k(  309) = (   0.0000000   1.8250979   0.5857815), wk =   0.0019531
        k(  310) = (  -0.7902892   1.3688235   0.6276229), wk =   0.0019531
        k(  311) = (  -1.5805784   0.9125490   0.6694642), wk =   0.0019531
        k(  312) = (  -2.3708677   0.4562745   0.7113056), wk =   0.0019531
        k(  313) = (   3.1611569   4.5627449   0.4602580), wk =   0.0019531
        k(  314) = (   2.3708677   4.1064704   0.5020993), wk =   0.0019531
        k(  315) = (   1.5805784   3.6501959   0.5439407), wk =   0.0019531
        k(  316) = (   0.7902892   3.1939214   0.5857820), wk =   0.0019531
        k(  317) = (   0.0000000   2.7376469   0.6276234), wk =   0.0019531
        k(  318) = (  -0.7902892   2.2813724   0.6694647), wk =   0.0019531
        k(  319) = (  -1.5805784   1.8250979   0.7113060), wk =   0.0019531
        k(  320) = (  -2.3708677   1.3688235   0.7531474), wk =   0.0019531
        k(  321) = (   3.9514461  -2.2813724   0.2092067), wk =   0.0019531
        k(  322) = (   3.1611569  -2.7376469   0.2510481), wk =   0.0019531
        k(  323) = (   2.3708677  -3.1939214   0.2928894), wk =   0.0019531
        k(  324) = (   1.5805784  -3.6501959   0.3347307), wk =   0.0019531
        k(  325) = (   0.7902892  -4.1064704   0.3765721), wk =   0.0019531
        k(  326) = (   0.0000000  -4.5627449   0.4184134), wk =   0.0019531
        k(  327) = (  -0.7902892  -5.0190193   0.4602548), wk =   0.0019531
        k(  328) = (  -1.5805784  -5.4752938   0.5020961), wk =   0.0019531
        k(  329) = (   3.9514461  -1.3688235   0.2510485), wk =   0.0019531
        k(  330) = (   3.1611569  -1.8250979   0.2928899), wk =   0.0019531
        k(  331) = (   2.3708677  -2.2813724   0.3347312), wk =   0.0019531
        k(  332) = (   1.5805784  -2.7376469   0.3765725), wk =   0.0019531
        k(  333) = (   0.7902892  -3.1939214   0.4184139), wk =   0.0019531
        k(  334) = (   0.0000000  -3.6501959   0.4602552), wk =   0.0019531
        k(  335) = (  -0.7902892  -4.1064704   0.5020966), wk =   0.0019531
        k(  336) = (  -1.5805784  -4.5627449   0.5439379), wk =   0.0019531
        k(  337) = (   3.9514461  -0.4562745   0.2928903), wk =   0.0019531
        k(  338) = (   3.1611569  -0.9125490   0.3347317), wk =   0.0019531
        k(  339) = (   2.3708677  -1.3688235   0.3765730), wk =   0.0019531
        k(  340) = (   1.5805784  -1.8250979   0.4184143), wk =   0.0019531
        k(  341) = (   0.7902892  -2.2813724   0.4602557), wk =   0.0019531
        k(  342) = (   0.0000000  -2.7376469   0.5020970), wk =   0.0019531
        k(  343) = (  -0.7902892  -3.1939214   0.5439384), wk =   0.0019531
        k(  344) = (  -1.5805784  -3.6501959   0.5857797), wk =   0.0019531
        k(  345) = (   3.9514461   0.4562745   0.3347321), wk =   0.0019531
        k(  346) = (   3.1611569   0.0000000   0.3765735), wk =   0.0019531
        k(  347) = (   2.3708677  -0.4562745   0.4184148), wk =   0.0019531
        k(  348) = (   1.5805784  -0.9125490   0.4602561), wk =   0.0019531
        k(  349) = (   0.7902892  -1.3688235   0.5020975), wk =   0.0019531
        k(  350) = (   0.0000000  -1.8250979   0.5439388), wk =   0.0019531
        k(  351) = (  -0.7902892  -2.2813724   0.5857802), wk =   0.0019531
        k(  352) = (  -1.5805784  -2.7376469   0.6276215), wk =   0.0019531
        k(  353) = (   3.9514461   1.3688235   0.3765739), wk =   0.0019531
        k(  354) = (   3.1611569   0.9125490   0.4184153), wk =   0.0019531
        k(  355) = (   2.3708677   0.4562745   0.4602566), wk =   0.0019531
        k(  356) = (   1.5805784   0.0000000   0.5020979), wk =   0.0019531
        k(  357) = (   0.7902892  -0.4562745   0.5439393), wk =   0.0019531
        k(  358) = (   0.0000000  -0.9125490   0.5857806), wk =   0.0019531
        k(  359) = (  -0.7902892  -1.3688235   0.6276220), wk =   0.0019531
        k(  360) = (  -1.5805784  -1.8250979   0.6694633), wk =   0.0019531
        k(  361) = (   3.9514461   2.2813724   0.4184157), wk =   0.0019531
        k(  362) = (   3.1611569   1.8250979   0.4602571), wk =   0.0019531
        k(  363) = (   2.3708677   1.3688235   0.5020984), wk =   0.0019531
        k(  364) = (   1.5805784   0.9125490   0.5439397), wk =   0.0019531
        k(  365) = (   0.7902892   0.4562745   0.5857811), wk =   0.0019531
        k(  366) = (   0.0000000   0.0000000   0.6276224), wk =   0.0019531
        k(  367) = (  -0.7902892  -0.4562745   0.6694638), wk =   0.0019531
        k(  368) = (  -1.5805784  -0.9125490   0.7113051), wk =   0.0019531
        k(  369) = (   3.9514461   3.1939214   0.4602575), wk =   0.0019531
        k(  370) = (   3.1611569   2.7376469   0.5020989), wk =   0.0019531
        k(  371) = (   2.3708677   2.2813724   0.5439402), wk =   0.0019531
        k(  372) = (   1.5805784   1.8250979   0.5857815), wk =   0.0019531
        k(  373) = (   0.7902892   1.3688235   0.6276229), wk =   0.0019531
        k(  374) = (   0.0000000   0.9125490   0.6694642), wk =   0.0019531
        k(  375) = (  -0.7902892   0.4562745   0.7113056), wk =   0.0019531
        k(  376) = (  -1.5805784   0.0000000   0.7531469), wk =   0.0019531
        k(  377) = (   3.9514461   4.1064704   0.5020993), wk =   0.0019531
        k(  378) = (   3.1611569   3.6501959   0.5439407), wk =   0.0019531
        k(  379) = (   2.3708677   3.1939214   0.5857820), wk =   0.0019531
        k(  380) = (   1.5805784   2.7376469   0.6276234), wk =   0.0019531
        k(  381) = (   0.7902892   2.2813724   0.6694647), wk =   0.0019531
        k(  382) = (   0.0000000   1.8250979   0.7113060), wk =   0.0019531
        k(  383) = (  -0.7902892   1.3688235   0.7531474), wk =   0.0019531
        k(  384) = (  -1.5805784   0.9125490   0.7949887), wk =   0.0019531
        k(  385) = (   4.7417353  -2.7376469   0.2510481), wk =   0.0019531
        k(  386) = (   3.9514461  -3.1939214   0.2928894), wk =   0.0019531
        k(  387) = (   3.1611569  -3.6501959   0.3347307), wk =   0.0019531
        k(  388) = (   2.3708677  -4.1064704   0.3765721), wk =   0.0019531
        k(  389) = (   1.5805784  -4.5627449   0.4184134), wk =   0.0019531
        k(  390) = (   0.7902892  -5.0190193   0.4602548), wk =   0.0019531
        k(  391) = (   0.0000000  -5.4752938   0.5020961), wk =   0.0019531
        k(  392) = (  -0.7902892  -5.9315683   0.5439375), wk =   0.0019531
        k(  393) = (   4.7417353  -1.8250979   0.2928899), wk =   0.0019531
        k(  394) = (   3.9514461  -2.2813724   0.3347312), wk =   0.0019531
        k(  395) = (   3.1611569  -2.7376469   0.3765725), wk =   0.0019531
        k(  396) = (   2.3708677  -3.1939214   0.4184139), wk =   0.0019531
        k(  397) = (   1.5805784  -3.6501959   0.4602552), wk =   0.0019531
        k(  398) = (   0.7902892  -4.1064704   0.5020966), wk =   0.0019531
        k(  399) = (   0.0000000  -4.5627449   0.5439379), wk =   0.0019531
        k(  400) = (  -0.7902892  -5.0190193   0.5857793), wk =   0.0019531
        k(  401) = (   4.7417353  -0.9125490   0.3347317), wk =   0.0019531
        k(  402) = (   3.9514461  -1.3688235   0.3765730), wk =   0.0019531
        k(  403) = (   3.1611569  -1.8250979   0.4184143), wk =   0.0019531
        k(  404) = (   2.3708677  -2.2813724   0.4602557), wk =   0.0019531
        k(  405) = (   1.5805784  -2.7376469   0.5020970), wk =   0.0019531
        k(  406) = (   0.7902892  -3.1939214   0.5439384), wk =   0.0019531
        k(  407) = (   0.0000000  -3.6501959   0.5857797), wk =   0.0019531
        k(  408) = (  -0.7902892  -4.1064704   0.6276211), wk =   0.0019531
        k(  409) = (   4.7417353   0.0000000   0.3765735), wk =   0.0019531
        k(  410) = (   3.9514461  -0.4562745   0.4184148), wk =   0.0019531
        k(  411) = (   3.1611569  -0.9125490   0.4602561), wk =   0.0019531
        k(  412) = (   2.3708677  -1.3688235   0.5020975), wk =   0.0019531
        k(  413) = (   1.5805784  -1.8250979   0.5439388), wk =   0.0019531
        k(  414) = (   0.7902892  -2.2813724   0.5857802), wk =   0.0019531
        k(  415) = (   0.0000000  -2.7376469   0.6276215), wk =   0.0019531
        k(  416) = (  -0.7902892  -3.1939214   0.6694629), wk =   0.0019531
        k(  417) = (   4.7417353   0.9125490   0.4184153), wk =   0.0019531
        k(  418) = (   3.9514461   0.4562745   0.4602566), wk =   0.0019531
        k(  419) = (   3.1611569  -0.0000000   0.5020979), wk =   0.0019531
        k(  420) = (   2.3708677  -0.4562745   0.5439393), wk =   0.0019531
        k(  421) = (   1.5805784  -0.9125490   0.5857806), wk =   0.0019531
        k(  422) = (   0.7902892  -1.3688235   0.6276220), wk =   0.0019531
        k(  423) = (   0.0000000  -1.8250979   0.6694633), wk =   0.0019531
        k(  424) = (  -0.7902892  -2.2813724   0.7113047), wk =   0.0019531
        k(  425) = (   4.7417353   1.8250979   0.4602571), wk =   0.0019531
        k(  426) = (   3.9514461   1.3688235   0.5020984), wk =   0.0019531
        k(  427) = (   3.1611569   0.9125490   0.5439397), wk =   0.0019531
        k(  428) = (   2.3708677   0.4562745   0.5857811), wk =   0.0019531
        k(  429) = (   1.5805784  -0.0000000   0.6276224), wk =   0.0019531
        k(  430) = (   0.7902892  -0.4562745   0.6694638), wk =   0.0019531
        k(  431) = (   0.0000000  -0.9125490   0.7113051), wk =   0.0019531
        k(  432) = (  -0.7902892  -1.3688235   0.7531465), wk =   0.0019531
        k(  433) = (   4.7417353   2.7376469   0.5020989), wk =   0.0019531
        k(  434) = (   3.9514461   2.2813724   0.5439402), wk =   0.0019531
        k(  435) = (   3.1611569   1.8250979   0.5857815), wk =   0.0019531
        k(  436) = (   2.3708677   1.3688235   0.6276229), wk =   0.0019531
        k(  437) = (   1.5805784   0.9125490   0.6694642), wk =   0.0019531
        k(  438) = (   0.7902892   0.4562745   0.7113056), wk =   0.0019531
        k(  439) = (   0.0000000   0.0000000   0.7531469), wk =   0.0019531
        k(  440) = (  -0.7902892  -0.4562745   0.7949883), wk =   0.0019531
        k(  441) = (   4.7417353   3.6501959   0.5439407), wk =   0.0019531
        k(  442) = (   3.9514461   3.1939214   0.5857820), wk =   0.0019531
        k(  443) = (   3.1611569   2.7376469   0.6276234), wk =   0.0019531
        k(  444) = (   2.3708677   2.2813724   0.6694647), wk =   0.0019531
        k(  445) = (   1.5805784   1.8250979   0.7113060), wk =   0.0019531
        k(  446) = (   0.7902892   1.3688235   0.7531474), wk =   0.0019531
        k(  447) = (   0.0000000   0.9125490   0.7949887), wk =   0.0019531
        k(  448) = (  -0.7902892   0.4562745   0.8368301), wk =   0.0019531
        k(  449) = (   5.5320245  -3.1939214   0.2928894), wk =   0.0019531
        k(  450) = (   4.7417353  -3.6501959   0.3347307), wk =   0.0019531
        k(  451) = (   3.9514461  -4.1064704   0.3765721), wk =   0.0019531
        k(  452) = (   3.1611569  -4.5627449   0.4184134), wk =   0.0019531
        k(  453) = (   2.3708677  -5.0190193   0.4602548), wk =   0.0019531
        k(  454) = (   1.5805784  -5.4752938   0.5020961), wk =   0.0019531
        k(  455) = (   0.7902892  -5.9315683   0.5439375), wk =   0.0019531
        k(  456) = (   0.0000000  -6.3878428   0.5857788), wk =   0.0019531
        k(  457) = (   5.5320245  -2.2813724   0.3347312), wk =   0.0019531
        k(  458) = (   4.7417353  -2.7376469   0.3765725), wk =   0.0019531
        k(  459) = (   3.9514461  -3.1939214   0.4184139), wk =   0.0019531
        k(  460) = (   3.1611569  -3.6501959   0.4602552), wk =   0.0019531
        k(  461) = (   2.3708677  -4.1064704   0.5020966), wk =   0.0019531
        k(  462) = (   1.5805784  -4.5627449   0.5439379), wk =   0.0019531
        k(  463) = (   0.7902892  -5.0190193   0.5857793), wk =   0.0019531
        k(  464) = (   0.0000000  -5.4752938   0.6276206), wk =   0.0019531
        k(  465) = (   5.5320245  -1.3688235   0.3765730), wk =   0.0019531
        k(  466) = (   4.7417353  -1.8250979   0.4184143), wk =   0.0019531
        k(  467) = (   3.9514461  -2.2813724   0.4602557), wk =   0.0019531
        k(  468) = (   3.1611569  -2.7376469   0.5020970), wk =   0.0019531
        k(  469) = (   2.3708677  -3.1939214   0.5439384), wk =   0.0019531
        k(  470) = (   1.5805784  -3.6501959   0.5857797), wk =   0.0019531
        k(  471) = (   0.7902892  -4.1064704   0.6276211), wk =   0.0019531
        k(  472) = (   0.0000000  -4.5627449   0.6694624), wk =   0.0019531
        k(  473) = (   5.5320245  -0.4562745   0.4184148), wk =   0.0019531
        k(  474) = (   4.7417353  -0.9125490   0.4602561), wk =   0.0019531
        k(  475) = (   3.9514461  -1.3688235   0.5020975), wk =   0.0019531
        k(  476) = (   3.1611569  -1.8250979   0.5439388), wk =   0.0019531
        k(  477) = (   2.3708677  -2.2813724   0.5857802), wk =   0.0019531
        k(  478) = (   1.5805784  -2.7376469   0.6276215), wk =   0.0019531
        k(  479) = (   0.7902892  -3.1939214   0.6694629), wk =   0.0019531
        k(  480) = (   0.0000000  -3.6501959   0.7113042), wk =   0.0019531
        k(  481) = (   5.5320245   0.4562745   0.4602566), wk =   0.0019531
        k(  482) = (   4.7417353  -0.0000000   0.5020979), wk =   0.0019531
        k(  483) = (   3.9514461  -0.4562745   0.5439393), wk =   0.0019531
        k(  484) = (   3.1611569  -0.9125490   0.5857806), wk =   0.0019531
        k(  485) = (   2.3708677  -1.3688235   0.6276220), wk =   0.0019531
        k(  486) = (   1.5805784  -1.8250979   0.6694633), wk =   0.0019531
        k(  487) = (   0.7902892  -2.2813724   0.7113047), wk =   0.0019531
        k(  488) = (   0.0000000  -2.7376469   0.7531460), wk =   0.0019531
        k(  489) = (   5.5320245   1.3688235   0.5020984), wk =   0.0019531
        k(  490) = (   4.7417353   0.9125490   0.5439397), wk =   0.0019531
        k(  491) = (   3.9514461   0.4562745   0.5857811), wk =   0.0019531
        k(  492) = (   3.1611569  -0.0000000   0.6276224), wk =   0.0019531
        k(  493) = (   2.3708677  -0.4562745   0.6694638), wk =   0.0019531
        k(  494) = (   1.5805784  -0.9125490   0.7113051), wk =   0.0019531
        k(  495) = (   0.7902892  -1.3688235   0.7531465), wk =   0.0019531
        k(  496) = (   0.0000000  -1.8250979   0.7949878), wk =   0.0019531
        k(  497) = (   5.5320245   2.2813724   0.5439402), wk =   0.0019531
        k(  498) = (   4.7417353   1.8250979   0.5857815), wk =   0.0019531
        k(  499) = (   3.9514461   1.3688235   0.6276229), wk =   0.0019531
        k(  500) = (   3.1611569   0.9125490   0.6694642), wk =   0.0019531
        k(  501) = (   2.3708677   0.4562745   0.7113056), wk =   0.0019531
        k(  502) = (   1.5805784   0.0000000   0.7531469), wk =   0.0019531
        k(  503) = (   0.7902892  -0.4562745   0.7949883), wk =   0.0019531
        k(  504) = (   0.0000000  -0.9125490   0.8368296), wk =   0.0019531
        k(  505) = (   5.5320245   3.1939214   0.5857820), wk =   0.0019531
        k(  506) = (   4.7417353   2.7376469   0.6276234), wk =   0.0019531
        k(  507) = (   3.9514461   2.2813724   0.6694647), wk =   0.0019531
        k(  508) = (   3.1611569   1.8250979   0.7113060), wk =   0.0019531
        k(  509) = (   2.3708677   1.3688235   0.7531474), wk =   0.0019531
        k(  510) = (   1.5805784   0.9125490   0.7949887), wk =   0.0019531
        k(  511) = (   0.7902892   0.4562745   0.8368301), wk =   0.0019531
        k(  512) = (   0.0000000   0.0000000   0.8786714), wk =   0.0019531

                       cryst. coord.
        k(    1) = (   0.0000000   0.0000000   0.0000000), wk =   0.0019531
        k(    2) = (   0.0000000   0.0000000   0.1250000), wk =   0.0019531
        k(    3) = (   0.0000000   0.0000000   0.2500000), wk =   0.0019531
        k(    4) = (   0.0000000  -0.0000000   0.3750000), wk =   0.0019531
        k(    5) = (   0.0000000   0.0000000   0.5000000), wk =   0.0019531
        k(    6) = (   0.0000000   0.0000000   0.6250000), wk =   0.0019531
        k(    7) = (   0.0000000  -0.0000000   0.7500000), wk =   0.0019531
        k(    8) = (   0.0000000   0.0000000   0.8750000), wk =   0.0019531
        k(    9) = (   0.0000000   0.1250000   0.0000000), wk =   0.0019531
        k(   10) = (   0.0000000   0.1250000   0.1250000), wk =   0.0019531
        k(   11) = (   0.0000000   0.1250000   0.2500000), wk =   0.0019531
        k(   12) = (   0.0000000   0.1250000   0.3750000), wk =   0.0019531
        k(   13) = (   0.0000000   0.1250000   0.5000000), wk =   0.0019531
        k(   14) = (   0.0000000   0.1250000   0.6250000), wk =   0.0019531
        k(   15) = (   0.0000000   0.1250000   0.7500000), wk =   0.0019531
        k(   16) = (   0.0000000   0.1250000   0.8750000), wk =   0.0019531
        k(   17) = (   0.0000000   0.2500000   0.0000000), wk =   0.0019531
        k(   18) = (   0.0000000   0.2500000   0.1250000), wk =   0.0019531
        k(   19) = (   0.0000000   0.2500000   0.2500000), wk =   0.0019531
        k(   20) = (   0.0000000   0.2500000   0.3750000), wk =   0.0019531
        k(   21) = (   0.0000000   0.2500000   0.5000000), wk =   0.0019531
        k(   22) = (   0.0000000   0.2500000   0.6250000), wk =   0.0019531
        k(   23) = (   0.0000000   0.2500000   0.7500000), wk =   0.0019531
        k(   24) = (   0.0000000   0.2500000   0.8750000), wk =   0.0019531
        k(   25) = (   0.0000000   0.3750000   0.0000000), wk =   0.0019531
        k(   26) = (   0.0000000   0.3750000   0.1250000), wk =   0.0019531
        k(   27) = (   0.0000000   0.3750000   0.2500000), wk =   0.0019531
        k(   28) = (   0.0000000   0.3750000   0.3750000), wk =   0.0019531
        k(   29) = (   0.0000000   0.3750000   0.5000000), wk =   0.0019531
        k(   30) = (   0.0000000   0.3750000   0.6250000), wk =   0.0019531
        k(   31) = (   0.0000000   0.3750000   0.7500000), wk =   0.0019531
        k(   32) = (   0.0000000   0.3750000   0.8750000), wk =   0.0019531
        k(   33) = (   0.0000000   0.5000000   0.0000000), wk =   0.0019531
        k(   34) = (   0.0000000   0.5000000   0.1250000), wk =   0.0019531
        k(   35) = (   0.0000000   0.5000000   0.2500000), wk =   0.0019531
        k(   36) = (   0.0000000   0.5000000   0.3750000), wk =   0.0019531
        k(   37) = (   0.0000000   0.5000000   0.5000000), wk =   0.0019531
        k(   38) = (   0.0000000   0.5000000   0.6250000), wk =   0.0019531
        k(   39) = (   0.0000000   0.5000000   0.7500000), wk =   0.0019531
        k(   40) = (   0.0000000   0.5000000   0.8750000), wk =   0.0019531
        k(   41) = (   0.0000000   0.6250000   0.0000000), wk =   0.0019531
        k(   42) = (   0.0000000   0.6250000   0.1250000), wk =   0.0019531
        k(   43) = (   0.0000000   0.6250000   0.2500000), wk =   0.0019531
        k(   44) = (   0.0000000   0.6250000   0.3750000), wk =   0.0019531
        k(   45) = (   0.0000000   0.6250000   0.5000000), wk =   0.0019531
        k(   46) = (   0.0000000   0.6250000   0.6250000), wk =   0.0019531
        k(   47) = (   0.0000000   0.6250000   0.7500000), wk =   0.0019531
        k(   48) = (   0.0000000   0.6250000   0.8750000), wk =   0.0019531
        k(   49) = (   0.0000000   0.7500000   0.0000000), wk =   0.0019531
        k(   50) = (   0.0000000   0.7500000   0.1250000), wk =   0.0019531
        k(   51) = (   0.0000000   0.7500000   0.2500000), wk =   0.0019531
        k(   52) = (   0.0000000   0.7500000   0.3750000), wk =   0.0019531
        k(   53) = (   0.0000000   0.7500000   0.5000000), wk =   0.0019531
        k(   54) = (   0.0000000   0.7500000   0.6250000), wk =   0.0019531
        k(   55) = (   0.0000000   0.7500000   0.7500000), wk =   0.0019531
        k(   56) = (   0.0000000   0.7500000   0.8750000), wk =   0.0019531
        k(   57) = (   0.0000000   0.8750000   0.0000000), wk =   0.0019531
        k(   58) = (   0.0000000   0.8750000   0.1250000), wk =   0.0019531
        k(   59) = (  -0.0000000   0.8750000   0.2500000), wk =   0.0019531
        k(   60) = (   0.0000000   0.8750000   0.3750000), wk =   0.0019531
        k(   61) = (   0.0000000   0.8750000   0.5000000), wk =   0.0019531
        k(   62) = (  -0.0000000   0.8750000   0.6250000), wk =   0.0019531
        k(   63) = (   0.0000000   0.8750000   0.7500000), wk =   0.0019531
        k(   64) = (   0.0000000   0.8750000   0.8750000), wk =   0.0019531
        k(   65) = (   0.1250000   0.0000000   0.0000000), wk =   0.0019531
        k(   66) = (   0.1250000   0.0000000   0.1250000), wk =   0.0019531
        k(   67) = (   0.1250000  -0.0000000   0.2500000), wk =   0.0019531
        k(   68) = (   0.1250000   0.0000000   0.3750000), wk =   0.0019531
        k(   69) = (   0.1250000   0.0000000   0.5000000), wk =   0.0019531
        k(   70) = (   0.1250000  -0.0000000   0.6250000), wk =   0.0019531
        k(   71) = (   0.1250000   0.0000000   0.7500000), wk =   0.0019531
        k(   72) = (   0.1250000   0.0000000   0.8750000), wk =   0.0019531
        k(   73) = (   0.1250000   0.1250000   0.0000000), wk =   0.0019531
        k(   74) = (   0.1250000   0.1250000   0.1250000), wk =   0.0019531
        k(   75) = (   0.1250000   0.1250000   0.2500000), wk =   0.0019531
        k(   76) = (   0.1250000   0.1250000   0.3750000), wk =   0.0019531
        k(   77) = (   0.1250000   0.1250000   0.5000000), wk =   0.0019531
        k(   78) = (   0.1250000   0.1250000   0.6250000), wk =   0.0019531
        k(   79) = (   0.1250000   0.1250000   0.7500000), wk =   0.0019531
        k(   80) = (   0.1250000   0.1250000   0.8750000), wk =   0.0019531
        k(   81) = (   0.1250000   0.2500000   0.0000000), wk =   0.0019531
        k(   82) = (   0.1250000   0.2500000   0.1250000), wk =   0.0019531
        k(   83) = (   0.1250000   0.2500000   0.2500000), wk =   0.0019531
        k(   84) = (   0.1250000   0.2500000   0.3750000), wk =   0.0019531
        k(   85) = (   0.1250000   0.2500000   0.5000000), wk =   0.0019531
        k(   86) = (   0.1250000   0.2500000   0.6250000), wk =   0.0019531
        k(   87) = (   0.1250000   0.2500000   0.7500000), wk =   0.0019531
        k(   88) = (   0.1250000   0.2500000   0.8750000), wk =   0.0019531
        k(   89) = (   0.1250000   0.3750000   0.0000000), wk =   0.0019531
        k(   90) = (   0.1250000   0.3750000   0.1250000), wk =   0.0019531
        k(   91) = (   0.1250000   0.3750000   0.2500000), wk =   0.0019531
        k(   92) = (   0.1250000   0.3750000   0.3750000), wk =   0.0019531
        k(   93) = (   0.1250000   0.3750000   0.5000000), wk =   0.0019531
        k(   94) = (   0.1250000   0.3750000   0.6250000), wk =   0.0019531
        k(   95) = (   0.1250000   0.3750000   0.7500000), wk =   0.0019531
        k(   96) = (   0.1250000   0.3750000   0.8750000), wk =   0.0019531
        k(   97) = (   0.1250000   0.5000000   0.0000000), wk =   0.0019531
        k(   98) = (   0.1250000   0.5000000   0.1250000), wk =   0.0019531
        k(   99) = (   0.1250000   0.5000000   0.2500000), wk =   0.0019531
        k(  100) = (   0.1250000   0.5000000   0.3750000), wk =   0.0019531
        k(  101) = (   0.1250000   0.5000000   0.5000000), wk =   0.0019531
        k(  102) = (   0.1250000   0.5000000   0.6250000), wk =   0.0019531
        k(  103) = (   0.1250000   0.5000000   0.7500000), wk =   0.0019531
        k(  104) = (   0.1250000   0.5000000   0.8750000), wk =   0.0019531
        k(  105) = (   0.1250000   0.6250000   0.0000000), wk =   0.0019531
        k(  106) = (   0.1250000   0.6250000   0.1250000), wk =   0.0019531
        k(  107) = (   0.1250000   0.6250000   0.2500000), wk =   0.0019531
        k(  108) = (   0.1250000   0.6250000   0.3750000), wk =   0.0019531
        k(  109) = (   0.1250000   0.6250000   0.5000000), wk =   0.0019531
        k(  110) = (   0.1250000   0.6250000   0.6250000), wk =   0.0019531
        k(  111) = (   0.1250000   0.6250000   0.7500000), wk =   0.0019531
        k(  112) = (   0.1250000   0.6250000   0.8750000), wk =   0.0019531
        k(  113) = (   0.1250000   0.7500000   0.0000000), wk =   0.0019531
        k(  114) = (   0.1250000   0.7500000   0.1250000), wk =   0.0019531
        k(  115) = (   0.1250000   0.7500000   0.2500000), wk =   0.0019531
        k(  116) = (   0.1250000   0.7500000   0.3750000), wk =   0.0019531
        k(  117) = (   0.1250000   0.7500000   0.5000000), wk =   0.0019531
        k(  118) = (   0.1250000   0.7500000   0.6250000), wk =   0.0019531
        k(  119) = (   0.1250000   0.7500000   0.7500000), wk =   0.0019531
        k(  120) = (   0.1250000   0.7500000   0.8750000), wk =   0.0019531
        k(  121) = (   0.1250000   0.8750000   0.0000000), wk =   0.0019531
        k(  122) = (   0.1250000   0.8750000   0.1250000), wk =   0.0019531
        k(  123) = (   0.1250000   0.8750000   0.2500000), wk =   0.0019531
        k(  124) = (   0.1250000   0.8750000   0.3750000), wk =   0.0019531
        k(  125) = (   0.1250000   0.8750000   0.5000000), wk =   0.0019531
        k(  126) = (   0.1250000   0.8750000   0.6250000), wk =   0.0019531
        k(  127) = (   0.1250000   0.8750000   0.7500000), wk =   0.0019531
        k(  128) = (   0.1250000   0.8750000   0.8750000), wk =   0.0019531
        k(  129) = (   0.2500000   0.0000000   0.0000000), wk =   0.0019531
        k(  130) = (   0.2500000  -0.0000000   0.1250000), wk =   0.0019531
        k(  131) = (   0.2500000   0.0000000   0.2500000), wk =   0.0019531
        k(  132) = (   0.2500000   0.0000000   0.3750000), wk =   0.0019531
        k(  133) = (   0.2500000  -0.0000000   0.5000000), wk =   0.0019531
        k(  134) = (   0.2500000   0.0000000   0.6250000), wk =   0.0019531
        k(  135) = (   0.2500000   0.0000000   0.7500000), wk =   0.0019531
        k(  136) = (   0.2500000  -0.0000000   0.8750000), wk =   0.0019531
        k(  137) = (   0.2500000   0.1250000   0.0000000), wk =   0.0019531
        k(  138) = (   0.2500000   0.1250000   0.1250000), wk =   0.0019531
        k(  139) = (   0.2500000   0.1250000   0.2500000), wk =   0.0019531
        k(  140) = (   0.2500000   0.1250000   0.3750000), wk =   0.0019531
        k(  141) = (   0.2500000   0.1250000   0.5000000), wk =   0.0019531
        k(  142) = (   0.2500000   0.1250000   0.6250000), wk =   0.0019531
        k(  143) = (   0.2500000   0.1250000   0.7500000), wk =   0.0019531
        k(  144) = (   0.2500000   0.1250000   0.8750000), wk =   0.0019531
        k(  145) = (   0.2500000   0.2500000   0.0000000), wk =   0.0019531
        k(  146) = (   0.2500000   0.2500000   0.1250000), wk =   0.0019531
        k(  147) = (   0.2500000   0.2500000   0.2500000), wk =   0.0019531
        k(  148) = (   0.2500000   0.2500000   0.3750000), wk =   0.0019531
        k(  149) = (   0.2500000   0.2500000   0.5000000), wk =   0.0019531
        k(  150) = (   0.2500000   0.2500000   0.6250000), wk =   0.0019531
        k(  151) = (   0.2500000   0.2500000   0.7500000), wk =   0.0019531
        k(  152) = (   0.2500000   0.2500000   0.8750000), wk =   0.0019531
        k(  153) = (   0.2500000   0.3750000   0.0000000), wk =   0.0019531
        k(  154) = (   0.2500000   0.3750000   0.1250000), wk =   0.0019531
        k(  155) = (   0.2500000   0.3750000   0.2500000), wk =   0.0019531
        k(  156) = (   0.2500000   0.3750000   0.3750000), wk =   0.0019531
        k(  157) = (   0.2500000   0.3750000   0.5000000), wk =   0.0019531
        k(  158) = (   0.2500000   0.3750000   0.6250000), wk =   0.0019531
        k(  159) = (   0.2500000   0.3750000   0.7500000), wk =   0.0019531
        k(  160) = (   0.2500000   0.3750000   0.8750000), wk =   0.0019531
        k(  161) = (   0.2500000   0.5000000   0.0000000), wk =   0.0019531
        k(  162) = (   0.2500000   0.5000000   0.1250000), wk =   0.0019531
        k(  163) = (   0.2500000   0.5000000   0.2500000), wk =   0.0019531
        k(  164) = (   0.2500000   0.5000000   0.3750000), wk =   0.0019531
        k(  165) = (   0.2500000   0.5000000   0.5000000), wk =   0.0019531
        k(  166) = (   0.2500000   0.5000000   0.6250000), wk =   0.0019531
        k(  167) = (   0.2500000   0.5000000   0.7500000), wk =   0.0019531
        k(  168) = (   0.2500000   0.5000000   0.8750000), wk =   0.0019531
        k(  169) = (   0.2500000   0.6250000   0.0000000), wk =   0.0019531
        k(  170) = (   0.2500000   0.6250000   0.1250000), wk =   0.0019531
        k(  171) = (   0.2500000   0.6250000   0.2500000), wk =   0.0019531
        k(  172) = (   0.2500000   0.6250000   0.3750000), wk =   0.0019531
        k(  173) = (   0.2500000   0.6250000   0.5000000), wk =   0.0019531
        k(  174) = (   0.2500000   0.6250000   0.6250000), wk =   0.0019531
        k(  175) = (   0.2500000   0.6250000   0.7500000), wk =   0.0019531
        k(  176) = (   0.2500000   0.6250000   0.8750000), wk =   0.0019531
        k(  177) = (   0.2500000   0.7500000   0.0000000), wk =   0.0019531
        k(  178) = (   0.2500000   0.7500000   0.1250000), wk =   0.0019531
        k(  179) = (   0.2500000   0.7500000   0.2500000), wk =   0.0019531
        k(  180) = (   0.2500000   0.7500000   0.3750000), wk =   0.0019531
        k(  181) = (   0.2500000   0.7500000   0.5000000), wk =   0.0019531
        k(  182) = (   0.2500000   0.7500000   0.6250000), wk =   0.0019531
        k(  183) = (   0.2500000   0.7500000   0.7500000), wk =   0.0019531
        k(  184) = (   0.2500000   0.7500000   0.8750000), wk =   0.0019531
        k(  185) = (   0.2500000   0.8750000  -0.0000000), wk =   0.0019531
        k(  186) = (   0.2500000   0.8750000   0.1250000), wk =   0.0019531
        k(  187) = (   0.2500000   0.8750000   0.2500000), wk =   0.0019531
        k(  188) = (   0.2500000   0.8750000   0.3750000), wk =   0.0019531
        k(  189) = (   0.2500000   0.8750000   0.5000000), wk =   0.0019531
        k(  190) = (   0.2500000   0.8750000   0.6250000), wk =   0.0019531
        k(  191) = (   0.2500000   0.8750000   0.7500000), wk =   0.0019531
        k(  192) = (   0.2500000   0.8750000   0.8750000), wk =   0.0019531
        k(  193) = (   0.3750000  -0.0000000   0.0000000), wk =   0.0019531
        k(  194) = (   0.3750000   0.0000000   0.1250000), wk =   0.0019531
        k(  195) = (   0.3750000   0.0000000   0.2500000), wk =   0.0019531
        k(  196) = (   0.3750000  -0.0000000   0.3750000), wk =   0.0019531
        k(  197) = (   0.3750000   0.0000000   0.5000000), wk =   0.0019531
        k(  198) = (   0.3750000   0.0000000   0.6250000), wk =   0.0019531
        k(  199) = (   0.3750000   0.0000000   0.7500000), wk =   0.0019531
        k(  200) = (   0.3750000   0.0000000   0.8750000), wk =   0.0019531
        k(  201) = (   0.3750000   0.1250000   0.0000000), wk =   0.0019531
        k(  202) = (   0.3750000   0.1250000   0.1250000), wk =   0.0019531
        k(  203) = (   0.3750000   0.1250000   0.2500000), wk =   0.0019531
        k(  204) = (   0.3750000   0.1250000   0.3750000), wk =   0.0019531
        k(  205) = (   0.3750000   0.1250000   0.5000000), wk =   0.0019531
        k(  206) = (   0.3750000   0.1250000   0.6250000), wk =   0.0019531
        k(  207) = (   0.3750000   0.1250000   0.7500000), wk =   0.0019531
        k(  208) = (   0.3750000   0.1250000   0.8750000), wk =   0.0019531
        k(  209) = (   0.3750000   0.2500000   0.0000000), wk =   0.0019531
        k(  210) = (   0.3750000   0.2500000   0.1250000), wk =   0.0019531
        k(  211) = (   0.3750000   0.2500000   0.2500000), wk =   0.0019531
        k(  212) = (   0.3750000   0.2500000   0.3750000), wk =   0.0019531
        k(  213) = (   0.3750000   0.2500000   0.5000000), wk =   0.0019531
        k(  214) = (   0.3750000   0.2500000   0.6250000), wk =   0.0019531
        k(  215) = (   0.3750000   0.2500000   0.7500000), wk =   0.0019531
        k(  216) = (   0.3750000   0.2500000   0.8750000), wk =   0.0019531
        k(  217) = (   0.3750000   0.3750000   0.0000000), wk =   0.0019531
        k(  218) = (   0.3750000   0.3750000   0.1250000), wk =   0.0019531
        k(  219) = (   0.3750000   0.3750000   0.2500000), wk =   0.0019531
        k(  220) = (   0.3750000   0.3750000   0.3750000), wk =   0.0019531
        k(  221) = (   0.3750000   0.3750000   0.5000000), wk =   0.0019531
        k(  222) = (   0.3750000   0.3750000   0.6250000), wk =   0.0019531
        k(  223) = (   0.3750000   0.3750000   0.7500000), wk =   0.0019531
        k(  224) = (   0.3750000   0.3750000   0.8750000), wk =   0.0019531
        k(  225) = (   0.3750000   0.5000000   0.0000000), wk =   0.0019531
        k(  226) = (   0.3750000   0.5000000   0.1250000), wk =   0.0019531
        k(  227) = (   0.3750000   0.5000000   0.2500000), wk =   0.0019531
        k(  228) = (   0.3750000   0.5000000   0.3750000), wk =   0.0019531
        k(  229) = (   0.3750000   0.5000000   0.5000000), wk =   0.0019531
        k(  230) = (   0.3750000   0.5000000   0.6250000), wk =   0.0019531
        k(  231) = (   0.3750000   0.5000000   0.7500000), wk =   0.0019531
        k(  232) = (   0.3750000   0.5000000   0.8750000), wk =   0.0019531
        k(  233) = (   0.3750000   0.6250000   0.0000000), wk =   0.0019531
        k(  234) = (   0.3750000   0.6250000   0.1250000), wk =   0.0019531
        k(  235) = (   0.3750000   0.6250000   0.2500000), wk =   0.0019531
        k(  236) = (   0.3750000   0.6250000   0.3750000), wk =   0.0019531
        k(  237) = (   0.3750000   0.6250000   0.5000000), wk =   0.0019531
        k(  238) = (   0.3750000   0.6250000   0.6250000), wk =   0.0019531
        k(  239) = (   0.3750000   0.6250000   0.7500000), wk =   0.0019531
        k(  240) = (   0.3750000   0.6250000   0.8750000), wk =   0.0019531
        k(  241) = (   0.3750000   0.7500000   0.0000000), wk =   0.0019531
        k(  242) = (   0.3750000   0.7500000   0.1250000), wk =   0.0019531
        k(  243) = (   0.3750000   0.7500000   0.2500000), wk =   0.0019531
        k(  244) = (   0.3750000   0.7500000   0.3750000), wk =   0.0019531
        k(  245) = (   0.3750000   0.7500000   0.5000000), wk =   0.0019531
        k(  246) = (   0.3750000   0.7500000   0.6250000), wk =   0.0019531
        k(  247) = (   0.3750000   0.7500000   0.7500000), wk =   0.0019531
        k(  248) = (   0.3750000   0.7500000   0.8750000), wk =   0.0019531
        k(  249) = (   0.3750000   0.8750000   0.0000000), wk =   0.0019531
        k(  250) = (   0.3750000   0.8750000   0.1250000), wk =   0.0019531
        k(  251) = (   0.3750000   0.8750000   0.2500000), wk =   0.0019531
        k(  252) = (   0.3750000   0.8750000   0.3750000), wk =   0.0019531
        k(  253) = (   0.3750000   0.8750000   0.5000000), wk =   0.0019531
        k(  254) = (   0.3750000   0.8750000   0.6250000), wk =   0.0019531
        k(  255) = (   0.3750000   0.8750000   0.7500000), wk =   0.0019531
        k(  256) = (   0.3750000   0.8750000   0.8750000), wk =   0.0019531
        k(  257) = (   0.5000000   0.0000000   0.0000000), wk =   0.0019531
        k(  258) = (   0.5000000   0.0000000   0.1250000), wk =   0.0019531
        k(  259) = (   0.5000000  -0.0000000   0.2500000), wk =   0.0019531
        k(  260) = (   0.5000000   0.0000000   0.3750000), wk =   0.0019531
        k(  261) = (   0.5000000   0.0000000   0.5000000), wk =   0.0019531
        k(  262) = (   0.5000000   0.0000000   0.6250000), wk =   0.0019531
        k(  263) = (   0.5000000   0.0000000   0.7500000), wk =   0.0019531
        k(  264) = (   0.5000000   0.0000000   0.8750000), wk =   0.0019531
        k(  265) = (   0.5000000   0.1250000   0.0000000), wk =   0.0019531
        k(  266) = (   0.5000000   0.1250000   0.1250000), wk =   0.0019531
        k(  267) = (   0.5000000   0.1250000   0.2500000), wk =   0.0019531
        k(  268) = (   0.5000000   0.1250000   0.3750000), wk =   0.0019531
        k(  269) = (   0.5000000   0.1250000   0.5000000), wk =   0.0019531
        k(  270) = (   0.5000000   0.1250000   0.6250000), wk =   0.0019531
        k(  271) = (   0.5000000   0.1250000   0.7500000), wk =   0.0019531
        k(  272) = (   0.5000000   0.1250000   0.8750000), wk =   0.0019531
        k(  273) = (   0.5000000   0.2500000   0.0000000), wk =   0.0019531
        k(  274) = (   0.5000000   0.2500000   0.1250000), wk =   0.0019531
        k(  275) = (   0.5000000   0.2500000   0.2500000), wk =   0.0019531
        k(  276) = (   0.5000000   0.2500000   0.3750000), wk =   0.0019531
        k(  277) = (   0.5000000   0.2500000   0.5000000), wk =   0.0019531
        k(  278) = (   0.5000000   0.2500000   0.6250000), wk =   0.0019531
        k(  279) = (   0.5000000   0.2500000   0.7500000), wk =   0.0019531
        k(  280) = (   0.5000000   0.2500000   0.8750000), wk =   0.0019531
        k(  281) = (   0.5000000   0.3750000   0.0000000), wk =   0.0019531
        k(  282) = (   0.5000000   0.3750000   0.1250000), wk =   0.0019531
        k(  283) = (   0.5000000   0.3750000   0.2500000), wk =   0.0019531
        k(  284) = (   0.5000000   0.3750000   0.3750000), wk =   0.0019531
        k(  285) = (   0.5000000   0.3750000   0.5000000), wk =   0.0019531
        k(  286) = (   0.5000000   0.3750000   0.6250000), wk =   0.0019531
        k(  287) = (   0.5000000   0.3750000   0.7500000), wk =   0.0019531
        k(  288) = (   0.5000000   0.3750000   0.8750000), wk =   0.0019531
        k(  289) = (   0.5000000   0.5000000   0.0000000), wk =   0.0019531
        k(  290) = (   0.5000000   0.5000000   0.1250000), wk =   0.0019531
        k(  291) = (   0.5000000   0.5000000   0.2500000), wk =   0.0019531
        k(  292) = (   0.5000000   0.5000000   0.3750000), wk =   0.0019531
        k(  293) = (   0.5000000   0.5000000   0.5000000), wk =   0.0019531
        k(  294) = (   0.5000000   0.5000000   0.6250000), wk =   0.0019531
        k(  295) = (   0.5000000   0.5000000   0.7500000), wk =   0.0019531
        k(  296) = (   0.5000000   0.5000000   0.8750000), wk =   0.0019531
        k(  297) = (   0.5000000   0.6250000   0.0000000), wk =   0.0019531
        k(  298) = (   0.5000000   0.6250000   0.1250000), wk =   0.0019531
        k(  299) = (   0.5000000   0.6250000   0.2500000), wk =   0.0019531
        k(  300) = (   0.5000000   0.6250000   0.3750000), wk =   0.0019531
        k(  301) = (   0.5000000   0.6250000   0.5000000), wk =   0.0019531
        k(  302) = (   0.5000000   0.6250000   0.6250000), wk =   0.0019531
        k(  303) = (   0.5000000   0.6250000   0.7500000), wk =   0.0019531
        k(  304) = (   0.5000000   0.6250000   0.8750000), wk =   0.0019531
        k(  305) = (   0.5000000   0.7500000   0.0000000), wk =   0.0019531
        k(  306) = (   0.5000000   0.7500000   0.1250000), wk =   0.0019531
        k(  307) = (   0.5000000   0.7500000   0.2500000), wk =   0.0019531
        k(  308) = (   0.5000000   0.7500000   0.3750000), wk =   0.0019531
        k(  309) = (   0.5000000   0.7500000   0.5000000), wk =   0.0019531
        k(  310) = (   0.5000000   0.7500000   0.6250000), wk =   0.0019531
        k(  311) = (   0.5000000   0.7500000   0.7500000), wk =   0.0019531
        k(  312) = (   0.5000000   0.7500000   0.8750000), wk =   0.0019531
        k(  313) = (   0.5000000   0.8750000   0.0000000), wk =   0.0019531
        k(  314) = (   0.5000000   0.8750000   0.1250000), wk =   0.0019531
        k(  315) = (   0.5000000   0.8750000   0.2500000), wk =   0.0019531
        k(  316) = (   0.5000000   0.8750000   0.3750000), wk =   0.0019531
        k(  317) = (   0.5000000   0.8750000   0.5000000), wk =   0.0019531
        k(  318) = (   0.5000000   0.8750000   0.6250000), wk =   0.0019531
        k(  319) = (   0.5000000   0.8750000   0.7500000), wk =   0.0019531
        k(  320) = (   0.5000000   0.8750000   0.8750000), wk =   0.0019531
        k(  321) = (   0.6250000   0.0000000   0.0000000), wk =   0.0019531
        k(  322) = (   0.6250000  -0.0000000   0.1250000), wk =   0.0019531
        k(  323) = (   0.6250000   0.0000000   0.2500000), wk =   0.0019531
        k(  324) = (   0.6250000   0.0000000   0.3750000), wk =   0.0019531
        k(  325) = (   0.6250000   0.0000000   0.5000000), wk =   0.0019531
        k(  326) = (   0.6250000   0.0000000   0.6250000), wk =   0.0019531
        k(  327) = (   0.6250000   0.0000000   0.7500000), wk =   0.0019531
        k(  328) = (   0.6250000  -0.0000000   0.8750000), wk =   0.0019531
        k(  329) = (   0.6250000   0.1250000   0.0000000), wk =   0.0019531
        k(  330) = (   0.6250000   0.1250000   0.1250000), wk =   0.0019531
        k(  331) = (   0.6250000   0.1250000   0.2500000), wk =   0.0019531
        k(  332) = (   0.6250000   0.1250000   0.3750000), wk =   0.0019531
        k(  333) = (   0.6250000   0.1250000   0.5000000), wk =   0.0019531
        k(  334) = (   0.6250000   0.1250000   0.6250000), wk =   0.0019531
        k(  335) = (   0.6250000   0.1250000   0.7500000), wk =   0.0019531
        k(  336) = (   0.6250000   0.1250000   0.8750000), wk =   0.0019531
        k(  337) = (   0.6250000   0.2500000   0.0000000), wk =   0.0019531
        k(  338) = (   0.6250000   0.2500000   0.1250000), wk =   0.0019531
        k(  339) = (   0.6250000   0.2500000   0.2500000), wk =   0.0019531
        k(  340) = (   0.6250000   0.2500000   0.3750000), wk =   0.0019531
        k(  341) = (   0.6250000   0.2500000   0.5000000), wk =   0.0019531
        k(  342) = (   0.6250000   0.2500000   0.6250000), wk =   0.0019531
        k(  343) = (   0.6250000   0.2500000   0.7500000), wk =   0.0019531
        k(  344) = (   0.6250000   0.2500000   0.8750000), wk =   0.0019531
        k(  345) = (   0.6250000   0.3750000   0.0000000), wk =   0.0019531
        k(  346) = (   0.6250000   0.3750000   0.1250000), wk =   0.0019531
        k(  347) = (   0.6250000   0.3750000   0.2500000), wk =   0.0019531
        k(  348) = (   0.6250000   0.3750000   0.3750000), wk =   0.0019531
        k(  349) = (   0.6250000   0.3750000   0.5000000), wk =   0.0019531
        k(  350) = (   0.6250000   0.3750000   0.6250000), wk =   0.0019531
        k(  351) = (   0.6250000   0.3750000   0.7500000), wk =   0.0019531
        k(  352) = (   0.6250000   0.3750000   0.8750000), wk =   0.0019531
        k(  353) = (   0.6250000   0.5000000   0.0000000), wk =   0.0019531
        k(  354) = (   0.6250000   0.5000000   0.1250000), wk =   0.0019531
        k(  355) = (   0.6250000   0.5000000   0.2500000), wk =   0.0019531
        k(  356) = (   0.6250000   0.5000000   0.3750000), wk =   0.0019531
        k(  357) = (   0.6250000   0.5000000   0.5000000), wk =   0.0019531
        k(  358) = (   0.6250000   0.5000000   0.6250000), wk =   0.0019531
        k(  359) = (   0.6250000   0.5000000   0.7500000), wk =   0.0019531
        k(  360) = (   0.6250000   0.5000000   0.8750000), wk =   0.0019531
        k(  361) = (   0.6250000   0.6250000   0.0000000), wk =   0.0019531
        k(  362) = (   0.6250000   0.6250000   0.1250000), wk =   0.0019531
        k(  363) = (   0.6250000   0.6250000   0.2500000), wk =   0.0019531
        k(  364) = (   0.6250000   0.6250000   0.3750000), wk =   0.0019531
        k(  365) = (   0.6250000   0.6250000   0.5000000), wk =   0.0019531
        k(  366) = (   0.6250000   0.6250000   0.6250000), wk =   0.0019531
        k(  367) = (   0.6250000   0.6250000   0.7500000), wk =   0.0019531
        k(  368) = (   0.6250000   0.6250000   0.8750000), wk =   0.0019531
        k(  369) = (   0.6250000   0.7500000   0.0000000), wk =   0.0019531
        k(  370) = (   0.6250000   0.7500000   0.1250000), wk =   0.0019531
        k(  371) = (   0.6250000   0.7500000   0.2500000), wk =   0.0019531
        k(  372) = (   0.6250000   0.7500000   0.3750000), wk =   0.0019531
        k(  373) = (   0.6250000   0.7500000   0.5000000), wk =   0.0019531
        k(  374) = (   0.6250000   0.7500000   0.6250000), wk =   0.0019531
        k(  375) = (   0.6250000   0.7500000   0.7500000), wk =   0.0019531
        k(  376) = (   0.6250000   0.7500000   0.8750000), wk =   0.0019531
        k(  377) = (   0.6250000   0.8750000  -0.0000000), wk =   0.0019531
        k(  378) = (   0.6250000   0.8750000   0.1250000), wk =   0.0019531
        k(  379) = (   0.6250000   0.8750000   0.2500000), wk =   0.0019531
        k(  380) = (   0.6250000   0.8750000   0.3750000), wk =   0.0019531
        k(  381) = (   0.6250000   0.8750000   0.5000000), wk =   0.0019531
        k(  382) = (   0.6250000   0.8750000   0.6250000), wk =   0.0019531
        k(  383) = (   0.6250000   0.8750000   0.7500000), wk =   0.0019531
        k(  384) = (   0.6250000   0.8750000   0.8750000), wk =   0.0019531
        k(  385) = (   0.7500000  -0.0000000   0.0000000), wk =   0.0019531
        k(  386) = (   0.7500000   0.0000000   0.1250000), wk =   0.0019531
        k(  387) = (   0.7500000   0.0000000   0.2500000), wk =   0.0019531
        k(  388) = (   0.7500000   0.0000000   0.3750000), wk =   0.0019531
[...]
    10.4293  10.4428  10.5187  10.5510  10.6164  10.6436  10.7171  10.7419
    11.0708  11.1176  11.1821  11.2113  11.3614  11.4574  11.5962  11.6379
    11.8371  11.8640  12.0113  12.0648  12.4680  12.4836  13.0574  13.1126
    13.3094  13.4139  13.6292  13.7411  13.9989  14.0372  14.2464  14.2797
    14.5414  14.5664  14.6143  14.6908  14.7119  14.7875  14.9224  15.0882
    15.1986  15.2683  15.4501  15.5097  15.5195  15.5564  15.7772  15.8041
    15.8254  15.9352  15.9575  15.9758  16.0432  16.1756  16.4781  16.5398
    16.5887  16.6687  16.6885  16.7240  16.7543  16.7902  16.8091  16.8448
    16.8865  16.8925  16.9288  16.9459  17.3159  17.3669  17.4299  17.4882
    17.8851  17.9692  17.9906  18.0674  18.1086  18.1781  18.2374  18.3091

     occupation numbers 
     1.0000   1.0000   1.0000   1.0000   1.0000   1.0000   1.0000   1.0000
     1.0000   1.0000   1.0000   1.0000   1.0000   1.0000   1.0000   1.0000
     1.0000   1.0000   1.0000   1.0000   1.0000   1.0000   1.0000   1.0000
     1.0000   1.0000   1.0000   1.0000   1.0000   1.0000   1.0000   1.0000
     1.0000   1.0000   1.0000   1.0000   1.0000   1.0000   1.0000   1.0000
     1.0000   1.0000   1.0000   1.0000   1.0000   1.0000   1.0000   1.0000
     1.0000   1.0000   1.0000   1.0000   1.0000   1.0000   1.0000   1.0000
     1.0000   1.0000   1.0000   1.0000   1.0000   1.0000   1.0000   1.0000
     1.0000   1.0000   1.0000   1.0000   1.0000   1.0000   1.0000   1.0000
     1.0000   1.0000   1.0000   1.0000   1.0000   1.0000   1.0000   1.0000
     1.0000   1.0000   1.0000   1.0000   1.0000   1.0000   1.0000   1.0000
     1.0000   1.0000   1.0000   1.0000   1.0000   1.0000   1.0000   1.0000
     1.0000   1.0000   1.0000   1.0000   1.0000   1.0000   1.0000   1.0000
     1.0000   1.0000   1.0000   1.0000   1.0000   1.0000   1.0000   1.0000
     1.0000   1.0000   1.0000   1.0000   1.0000   1.0000   1.0000   1.0000
     1.0000   1.0000   1.0000   1.0000   1.0000   1.0000   1.0000   1.0000
     1.0000   1.0000   1.0000   1.0000   1.0000   1.0000   1.0000   1.0000
     1.0020   1.0029   0.0000   0.0000   0.0000   0.0000   0.0000   0.0000
     0.0000   0.0000   0.0000   0.0000   0.0000   0.0000   0.0000   0.0000
     0.0000   0.0000   0.0000   0.0000   0.0000   0.0000   0.0000   0.0000
     0.0000   0.0000   0.0000   0.0000   0.0000   0.0000   0.0000   0.0000
     0.0000   0.0000   0.0000   0.0000   0.0000   0.0000   0.0000   0.0000
     0.0000   0.0000   0.0000   0.0000   0.0000   0.0000   0.0000   0.0000
     0.0000   0.0000   0.0000   0.0000   0.0000   0.0000   0.0000   0.0000
     0.0000   0.0000   0.0000   0.0000   0.0000   0.0000   0.0000   0.0000
     0.0000   0.0000   0.0000   0.0000   0.0000   0.0000   0.0000   0.0000
     0.0000   0.0000   0.0000   0.0000   0.0000   0.0000   0.0000   0.0000
     0.0000   0.0000   0.0000   0.0000   0.0000   0.0000   0.0000   0.0000
     0.0000   0.0000   0.0000   0.0000   0.0000   0.0000   0.0000   0.0000
     0.0000   0.0000   0.0000   0.0000   0.0000   0.0000   0.0000   0.0000

          k = 1.5806 0.9125 0.7950 ( 23481 PWs)   bands (ev):

   -74.8335 -74.8194 -69.9350 -69.9214 -44.0647 -44.0504 -43.6575 -43.6440
   -43.1517 -43.1372 -39.1043 -39.0904 -38.6976 -38.6847 -38.3495 -38.3352
   -17.2482 -17.0666 -17.0565 -17.0413 -17.0124 -17.0007 -17.0006 -16.9800
   -16.9545 -16.9499 -16.9412 -16.9218 -16.9162 -16.8920 -16.8865 -16.7827
   -14.3663 -14.1258 -14.0732 -14.0542 -14.0519 -14.0351 -14.0314 -14.0101
   -14.0088 -14.0042 -13.9842 -13.9787 -13.9750 -13.9723 -13.9716 -13.9647
   -13.9640 -13.9460 -13.9423 -13.9318 -13.9210 -13.9167 -13.8398 -13.6288
    -5.1609  -5.0852  -5.0328  -4.9780  -4.9457  -4.8842  -4.7851  -4.6881
    -3.7229  -3.5964  -3.5047  -3.4647  -3.2789  -3.1894  -3.0677  -3.0166
    -1.8354  -1.7827  -1.6921  -1.6695  -1.4447  -1.4220  -1.3106  -1.2771
     1.8866   1.9035   1.9452   1.9535   2.0064   2.0222   2.0978   2.1107
     2.1476   2.1597   3.2290   3.2709   3.3774   3.4608   3.6874   3.7808
     3.9025   3.9675   4.0807   4.1328   4.2403   4.2942   4.4322   4.4872
     4.5581   4.6256   5.0105   5.0259   5.0937   5.1381   5.2431   5.2689
     5.3072   5.3706   5.6183   5.6818   5.7799   5.8213   5.8600   5.9397
     6.0266   6.1125   6.2441   6.2868   6.3509   6.3992   6.4231   6.4793
     6.6718   6.6842   6.6985   6.7436   7.0105   7.0218   7.1491   7.2230
     7.3199   7.3522   8.2715   8.3507   8.4140   8.4448   8.9331   9.0092
     9.0485   9.0724   9.4175   9.4410   9.5253   9.5545   9.6987   9.7718
     9.8054   9.8297   9.8910   9.9320  10.0803  10.1199  10.1960  10.2590
    10.4072  10.4216  10.4547  10.4762  10.5314  10.5409  10.6798  10.6874
    11.0222  11.0418  11.2545  11.2738  11.4746  11.5048  11.7084  11.8128
    12.0070  12.0692  12.2253  12.2565  12.3904  12.4230  12.6986  12.7274
    13.1415  13.1981  13.3081  13.3665  13.4234  13.5013  13.5669  13.6069
    13.6770  13.7383  13.9533  13.9804  14.1318  14.1542  14.2286  14.2868
    14.3344  14.3576  14.6158  14.6814  14.6951  14.7510  14.7931  14.8291
    14.8535  14.9192  14.9961  15.0062  15.2633  15.3047  15.4609  15.5394
    15.5882  15.6182  15.8092  15.8320  15.9079  15.9660  16.0970  16.1305
    16.2761  16.4083  16.4357  16.4757  16.5380  16.6457  16.7934  16.8583
    16.9445  16.9958  17.0874  17.1742  17.2828  17.3683  17.3917  17.5469

     occupation numbers 
     1.0000   1.0000   1.0000   1.0000   1.0000   1.0000   1.0000   1.0000
     1.0000   1.0000   1.0000   1.0000   1.0000   1.0000   1.0000   1.0000
     1.0000   1.0000   1.0000   1.0000   1.0000   1.0000   1.0000   1.0000
     1.0000   1.0000   1.0000   1.0000   1.0000   1.0000   1.0000   1.0000
     1.0000   1.0000   1.0000   1.0000   1.0000   1.0000   1.0000   1.0000
     1.0000   1.0000   1.0000   1.0000   1.0000   1.0000   1.0000   1.0000
     1.0000   1.0000   1.0000   1.0000   1.0000   1.0000   1.0000   1.0000
     1.0000   1.0000   1.0000   1.0000   1.0000   1.0000   1.0000   1.0000
     1.0000   1.0000   1.0000   1.0000   1.0000   1.0000   1.0000   1.0000
     1.0000   1.0000   1.0000   1.0000   1.0000   1.0000   1.0000   1.0000
     1.0000   1.0000   1.0000   1.0000   1.0000   1.0000   1.0000   1.0000
     1.0000   1.0000   1.0000   1.0000   1.0000   1.0000   1.0000   1.0000
     1.0000   1.0000   1.0000   1.0000   1.0000   1.0000   1.0000   1.0000
     1.0000   1.0000   1.0000   1.0000   1.0000   1.0000   1.0000   1.0000
     1.0000   1.0000   1.0000   1.0000   1.0000   1.0000   1.0000   1.0000
     1.0000   1.0000   1.0000   1.0000   1.0000   1.0000   1.0000   1.0000
     1.0000   1.0000   1.0000   1.0000   1.0000   1.0000   1.0002   1.0027
     1.0293   1.0495   0.0000   0.0000   0.0000   0.0000   0.0000   0.0000
     0.0000   0.0000   0.0000   0.0000   0.0000   0.0000   0.0000   0.0000
     0.0000   0.0000   0.0000   0.0000   0.0000   0.0000   0.0000   0.0000
     0.0000   0.0000   0.0000   0.0000   0.0000   0.0000   0.0000   0.0000
     0.0000   0.0000   0.0000   0.0000   0.0000   0.0000   0.0000   0.0000
     0.0000   0.0000   0.0000   0.0000   0.0000   0.0000   0.0000   0.0000
     0.0000   0.0000   0.0000   0.0000   0.0000   0.0000   0.0000   0.0000
     0.0000   0.0000   0.0000   0.0000   0.0000   0.0000   0.0000   0.0000
     0.0000   0.0000   0.0000   0.0000   0.0000   0.0000   0.0000   0.0000
     0.0000   0.0000   0.0000   0.0000   0.0000   0.0000   0.0000   0.0000
     0.0000   0.0000   0.0000   0.0000   0.0000   0.0000   0.0000   0.0000
     0.0000   0.0000   0.0000   0.0000   0.0000   0.0000   0.0000   0.0000
     0.0000   0.0000   0.0000   0.0000   0.0000   0.0000   0.0000   0.0000

          k = 0.7903 0.4563 0.8368 ( 23444 PWs)   bands (ev):

   -74.8336 -74.8194 -69.9350 -69.9214 -44.0645 -44.0502 -43.6575 -43.6440
   -43.1516 -43.1370 -39.1042 -39.0902 -38.6976 -38.6847 -38.3493 -38.3350
   -17.2481 -17.0664 -17.0578 -17.0421 -17.0125 -17.0016 -17.0009 -16.9806
   -16.9552 -16.9508 -16.9418 -16.9219 -16.9164 -16.8928 -16.8865 -16.7825
   -14.3666 -14.1262 -14.0737 -14.0542 -14.0522 -14.0339 -14.0315 -14.0122
   -14.0077 -14.0040 -13.9845 -13.9794 -13.9764 -13.9739 -13.9731 -13.9640
   -13.9637 -13.9450 -13.9429 -13.9337 -13.9211 -13.9180 -13.8406 -13.6299
    -5.5491  -5.4841  -5.4273  -5.3706  -5.3220  -5.2725  -5.1654  -5.0679
    -3.9803  -3.8571  -3.7226  -3.6716  -3.4485  -3.3859  -3.1815  -3.1512
    -1.6258  -1.6125  -1.3811  -1.3553  -1.0272  -1.0091  -0.8137  -0.8019
     1.8697   1.8832   1.9095   1.9165   1.9341   1.9505   2.1262   2.1376
     2.1392   2.1523   3.6889   3.9177   3.9757   4.1075   4.2097   4.3286
     4.4396   4.4609   4.8160   4.9052   5.0431   5.0581   5.2946   5.3386
     5.4001   5.4261   5.5549   5.6342   5.6568   5.7340   5.7906   5.8203
     5.8703   5.9768   6.1882   6.2192   6.3088   6.3256   6.3719   6.4507
     6.4794   6.5171   6.5591   6.5898   6.7690   6.8137   6.9218   6.9729
     7.0420   7.0894   7.1074   7.1265   7.2188   7.2691   7.3699   7.4197
     7.5164   7.5397   8.0105   8.0411   8.0912   8.1079   8.5205   8.5576
     8.6044   8.6463   9.2490   9.2662   9.4516   9.4708   9.5697   9.5853
     9.6741   9.7034   9.8043   9.8454   9.9073   9.9350  10.0140  10.0398
    10.0462  10.0563  10.1281  10.1506  10.2225  10.2410  10.3150  10.3301
    10.8378  10.8530  10.9058  10.9275  11.4955  11.5343  11.7058  11.7457
    11.9840  12.0339  12.4014  12.4478  12.6362  12.7318  12.7772  12.8091
    12.8525  12.9261  12.9695  13.0232  13.0593  13.1224  13.2114  13.2595
    13.3784  13.4320  13.6359  13.6516  13.7306  13.7688  13.8409  13.8542
    13.9114  13.9394  14.0124  14.0910  14.1285  14.1664  14.2581  14.2708
    14.3859  14.4446  14.6459  14.6742  14.7355  14.7990  14.8308  14.9013
    14.9678  15.0326  15.2884  15.3422  15.6478  15.7130  15.7222  15.7698
    15.8106  15.8608  15.9338  15.9879  16.0658  16.0838  16.1151  16.1804
    16.2220  16.2601  16.2877  16.3391  16.4161  16.5075  16.5934  16.6478

     occupation numbers 
     1.0000   1.0000   1.0000   1.0000   1.0000   1.0000   1.0000   1.0000
     1.0000   1.0000   1.0000   1.0000   1.0000   1.0000   1.0000   1.0000
     1.0000   1.0000   1.0000   1.0000   1.0000   1.0000   1.0000   1.0000
     1.0000   1.0000   1.0000   1.0000   1.0000   1.0000   1.0000   1.0000
     1.0000   1.0000   1.0000   1.0000   1.0000   1.0000   1.0000   1.0000
     1.0000   1.0000   1.0000   1.0000   1.0000   1.0000   1.0000   1.0000
     1.0000   1.0000   1.0000   1.0000   1.0000   1.0000   1.0000   1.0000
     1.0000   1.0000   1.0000   1.0000   1.0000   1.0000   1.0000   1.0000
     1.0000   1.0000   1.0000   1.0000   1.0000   1.0000   1.0000   1.0000
     1.0000   1.0000   1.0000   1.0000   1.0000   1.0000   1.0000   1.0000
     1.0000   1.0000   1.0000   1.0000   1.0000   1.0000   1.0000   1.0000
     1.0000   1.0000   1.0000   1.0000   1.0000   1.0000   1.0000   1.0000
     1.0000   1.0000   1.0000   1.0000   1.0000   1.0000   1.0000   1.0000
     1.0000   1.0000   1.0000   1.0000   1.0000   1.0000   1.0000   1.0000
     1.0000   1.0000   1.0000   1.0000   1.0000   1.0000   1.0000   1.0000
     1.0000   1.0000   1.0000   1.0000   1.0000   1.0000   1.0000   1.0000
     1.0000   1.0000   1.0000   1.0001   1.0024   1.0098   1.0617   1.0833
     0.8963   0.7886   0.0000   0.0000   0.0000   0.0000   0.0000   0.0000
     0.0000   0.0000   0.0000   0.0000   0.0000   0.0000   0.0000   0.0000
     0.0000   0.0000   0.0000   0.0000   0.0000   0.0000   0.0000   0.0000
     0.0000   0.0000   0.0000   0.0000   0.0000   0.0000   0.0000   0.0000
     0.0000   0.0000   0.0000   0.0000   0.0000   0.0000   0.0000   0.0000
     0.0000   0.0000   0.0000   0.0000   0.0000   0.0000   0.0000   0.0000
     0.0000   0.0000   0.0000   0.0000   0.0000   0.0000   0.0000   0.0000
     0.0000   0.0000   0.0000   0.0000   0.0000   0.0000   0.0000   0.0000
     0.0000   0.0000   0.0000   0.0000   0.0000   0.0000   0.0000   0.0000
     0.0000   0.0000   0.0000   0.0000   0.0000   0.0000   0.0000   0.0000
     0.0000   0.0000   0.0000   0.0000   0.0000   0.0000   0.0000   0.0000
     0.0000   0.0000   0.0000   0.0000   0.0000   0.0000   0.0000   0.0000
     0.0000   0.0000   0.0000   0.0000   0.0000   0.0000   0.0000   0.0000

          k = 0.0000 0.0000 0.8787 ( 23488 PWs)   bands (ev):

   -74.8336 -74.8194 -69.9350 -69.9214 -44.0645 -44.0502 -43.6575 -43.6440
   -43.1515 -43.1370 -39.1041 -39.0901 -38.6977 -38.6848 -38.3492 -38.3350
   -17.2483 -17.0661 -17.0585 -17.0428 -17.0125 -17.0022 -17.0013 -16.9811
   -16.9556 -16.9512 -16.9420 -16.9221 -16.9164 -16.8932 -16.8868 -16.7823
   -14.3664 -14.1267 -14.0743 -14.0541 -14.0520 -14.0342 -14.0313 -14.0132
   -14.0070 -14.0042 -13.9845 -13.9798 -13.9766 -13.9749 -13.9735 -13.9639
   -13.9632 -13.9444 -13.9435 -13.9345 -13.9212 -13.9187 -13.8407 -13.6311
    -5.6830  -5.6209  -5.5618  -5.5049  -5.4526  -5.4071  -5.2974  -5.1997
    -4.0795  -3.9569  -3.8059  -3.7503  -3.5220  -3.4691  -3.2328  -3.2054
    -1.5959  -1.5801  -1.2880  -1.2522  -0.9124  -0.8926  -0.6323  -0.6248
     1.8465   1.8589   1.8814   1.8880   1.9153   1.9318   2.1339   2.1452
     2.1467   2.1599   3.8113   3.9793   4.1584   4.3316   4.5659   4.7464
     5.0452   5.1046   5.2294   5.2642   5.4364   5.5027   5.5796   5.6157
     5.7835   5.9031   6.1116   6.1326   6.1582   6.2115   6.2327   6.2656
     6.3201   6.3539   6.4071   6.4224   6.4501   6.4703   6.5192   6.6942
     6.7648   6.8089   6.8540   6.8732   6.9120   6.9473   6.9688   6.9884
     7.1921   7.2118   7.2902   7.3131   7.4603   7.5027   7.5123   7.5495
     7.5591   7.6458   7.6821   7.8383   7.8769   7.9462   7.9834   8.0855
     8.1525   8.1998   8.9205   8.9383   9.1912   9.2624   9.3162   9.3446
     9.3654   9.3807   9.4765   9.5042   9.5531   9.5965   9.8024   9.8519
     9.9110   9.9755  10.0645  10.0706  10.1372  10.1527  10.1592  10.1728
    10.6924  10.7094  10.9538  10.9670  11.2807  11.3356  11.5912  11.6084
    11.6419  11.6790  12.3832  12.4200  12.6481  12.6821  12.8468  12.8547
    13.1042  13.1582  13.1933  13.2612  13.2852  13.3258  13.3490  13.3645
    13.4190  13.5600  13.5868  13.6777  13.7023  13.7369  13.7983  13.8180
    13.8416  13.8635  14.0543  14.0820  14.1551  14.2006  14.3027  14.3132
    14.3398  14.3671  14.4389  14.4844  14.6843  14.6965  14.7646  14.7911
    14.8770  14.8946  14.9069  15.0542  15.0769  15.2684  15.2946  15.3789
    15.4076  15.4445  15.5124  15.5486  15.5591  15.6459  15.7121  15.7229
    15.7865  15.7917  16.1888  16.2148  16.2570  16.2911  16.3117  16.3506

     occupation numbers 
     1.0000   1.0000   1.0000   1.0000   1.0000   1.0000   1.0000   1.0000
     1.0000   1.0000   1.0000   1.0000   1.0000   1.0000   1.0000   1.0000
     1.0000   1.0000   1.0000   1.0000   1.0000   1.0000   1.0000   1.0000
     1.0000   1.0000   1.0000   1.0000   1.0000   1.0000   1.0000   1.0000
     1.0000   1.0000   1.0000   1.0000   1.0000   1.0000   1.0000   1.0000
     1.0000   1.0000   1.0000   1.0000   1.0000   1.0000   1.0000   1.0000
     1.0000   1.0000   1.0000   1.0000   1.0000   1.0000   1.0000   1.0000
     1.0000   1.0000   1.0000   1.0000   1.0000   1.0000   1.0000   1.0000
     1.0000   1.0000   1.0000   1.0000   1.0000   1.0000   1.0000   1.0000
     1.0000   1.0000   1.0000   1.0000   1.0000   1.0000   1.0000   1.0000
     1.0000   1.0000   1.0000   1.0000   1.0000   1.0000   1.0000   1.0000
     1.0000   1.0000   1.0000   1.0000   1.0000   1.0000   1.0000   1.0000
     1.0000   1.0000   1.0000   1.0000   1.0000   1.0000   1.0000   1.0000
     1.0000   1.0000   1.0000   1.0000   1.0000   1.0000   1.0000   1.0000
     1.0000   1.0000   1.0000   1.0000   1.0000   1.0000   1.0000   1.0000
     1.0000   1.0000   1.0000   1.0000   1.0000   1.0000   1.0000   1.0000
     1.0010   1.0019   1.0160   1.0258   1.0557   0.9490   0.9128   0.7380
     0.6867   0.2481   0.1312   0.0018   0.0004   0.0000   0.0000   0.0000
     0.0000   0.0000   0.0000   0.0000   0.0000   0.0000   0.0000   0.0000
     0.0000   0.0000   0.0000   0.0000   0.0000   0.0000   0.0000   0.0000
     0.0000   0.0000   0.0000   0.0000   0.0000   0.0000   0.0000   0.0000
     0.0000   0.0000   0.0000   0.0000   0.0000   0.0000   0.0000   0.0000
     0.0000   0.0000   0.0000   0.0000   0.0000   0.0000   0.0000   0.0000
     0.0000   0.0000   0.0000   0.0000   0.0000   0.0000   0.0000   0.0000
     0.0000   0.0000   0.0000   0.0000   0.0000   0.0000   0.0000   0.0000
     0.0000   0.0000   0.0000   0.0000   0.0000   0.0000   0.0000   0.0000
     0.0000   0.0000   0.0000   0.0000   0.0000   0.0000   0.0000   0.0000
     0.0000   0.0000   0.0000   0.0000   0.0000   0.0000   0.0000   0.0000
     0.0000   0.0000   0.0000   0.0000   0.0000   0.0000   0.0000   0.0000
     0.0000   0.0000   0.0000   0.0000   0.0000   0.0000   0.0000   0.0000

     the Fermi energy is     7.6119 ev
     (compare with:     7.6288 eV, computed in scf)

     Writing all to output data dir ./tmp/MnBi2Te4.save/
 
     init_run     :     56.85s CPU     63.18s WALL (       1 calls)
     electrons    : 217136.09s CPU 224685.48s WALL (       1 calls)

     Called by init_run:
     wfcinit      :     55.05s CPU     61.12s WALL (       1 calls)
     wfcinit:atom :      0.17s CPU      0.34s WALL (     512 calls)
     wfcinit:wfcr :   7058.95s CPU   7313.21s WALL (     512 calls)
     potinit      :      0.79s CPU      0.94s WALL (       1 calls)
     hinit0       :      0.42s CPU      0.49s WALL (       1 calls)

     Called by electrons:
     c_bands      : 217135.95s CPU 224685.08s WALL (       1 calls)
     v_of_rho     :      0.26s CPU      0.33s WALL (       1 calls)
     v_h          :      0.01s CPU      0.01s WALL (       1 calls)
     v_xc         :      0.26s CPU      0.32s WALL (       1 calls)
     newd         :      0.50s CPU      0.53s WALL (       1 calls)
     PAW_pot      :      0.48s CPU      0.53s WALL (       1 calls)

     Called by c_bands:
     init_us_2    :      1.15s CPU      1.23s WALL (    1024 calls)
     init_us_2:cp :      1.14s CPU      1.23s WALL (    1024 calls)
     cegterg      : 210052.87s CPU 217341.64s WALL (    2050 calls)

     Called by sum_band:

     Called by *egterg:
     cdiaghg      :   2138.39s CPU   2252.82s WALL (   36034 calls)
     cegterg:over :   2105.94s CPU   2297.82s WALL (   35522 calls)
     cegterg:upda :   1109.16s CPU   1170.49s WALL (   35522 calls)
     cegterg:last :   2041.32s CPU   2155.31s WALL (   14912 calls)
     cdiaghg:chol :    277.44s CPU    286.30s WALL (   36034 calls)
     cdiaghg:inve :     39.85s CPU     40.99s WALL (   36034 calls)
     cdiaghg:para :    414.63s CPU    456.67s WALL (   72068 calls)
     h_psi        : 208505.73s CPU 215501.01s WALL (   38084 calls)
     s_psi        :    465.34s CPU    477.70s WALL (   38596 calls)
     g_psi        :      6.52s CPU      6.64s WALL (   35522 calls)

     Called by h_psi:
     h_psi:calbec :   2109.42s CPU   2358.08s WALL (   38084 calls)
     vloc_psi     : 205074.48s CPU 211758.01s WALL (   38084 calls)
     add_vuspsi   :    413.64s CPU    426.75s WALL (   38084 calls)
     vhpsi        :    896.15s CPU    944.65s WALL (   38084 calls)

     General routines
     calbec       :   2123.77s CPU   2377.11s WALL (   38596 calls)
     fft          :      0.11s CPU      0.14s WALL (      27 calls)
     fftw         : 191077.16s CPU 197594.08s WALL (14484516 calls)
     davcio       :      0.38s CPU      7.60s WALL (    2048 calls)
 
     Parallel routines

     Hubbard U routines
     vhpsi        :    896.15s CPU    944.65s WALL (   38084 calls)

     PAW routines
     PAW_pot      :      0.48s CPU      0.53s WALL (       1 calls)
 
     PWSCF        :   2d18h58m CPU   2d21h 8m WALL

 
   This run was terminated on:  16: 1:37  20Dec2025            

=------------------------------------------------------------------------------=
   JOB DONE.
=------------------------------------------------------------------------------=
