
     Program PWSCF v.7.2 starts on 13Dec2025 at 18:56:24 

     This program is part of the open-source Quantum ESPRESSO suite
     for quantum simulation of materials; please cite
         "P. Giannozzi et al., J. Phys.:Condens. Matter 21 395502 (2009);
         "P. Giannozzi et al., J. Phys.:Condens. Matter 29 465901 (2017);
         "P. Giannozzi et al., J. Chem. Phys. 152 154105 (2020);
          URL http://www.quantum-espresso.org", 
     in publications or presentations arising from this work. More details at
     http://www.quantum-espresso.org/quote

     Parallel version (MPI), running on    64 processors

     MPI processes distributed on     1 nodes
     252246 MiB available memory on the printing compute node when the environment starts
 
     Reading input from MnBi2Te4.scf.in

     Current dimensions of program PWSCF are:
     Max number of different atomic species (ntypx) = 10
     Max number of k-points (npk) =  40000
     Max angular momentum in pseudopotentials (lmaxx) =  4
     file Mn.rel-pbe-spn-kjpaw_psl.0.3.1.UPF: wavefunction(s)  3P 3P 3D renormalized
     file Mn.rel-pbe-spn-kjpaw_psl.0.3.1.UPF: wavefunction(s)  3P 3P 3D renormalized
     file Bi.rel-pbe-dn-kjpaw_psl.1.0.0.UPF: wavefunction(s)  6P 6P 5D 5D renormalized
     file Te.rel-pbe-n-kjpaw_psl.1.0.0.UPF: wavefunction(s)  5S 5P 5P renormalized

     Fixed quantization axis for GGA:     0.000000    0.000000    1.000000
     Message from routine setup:
     using ibrav=0 with symmetry is DISCOURAGED, use correct ibrav instead
 
     R & G space division:  proc/nbgrp/npool/nimage =      64
     Subspace diagonalization in iterative solution of the eigenvalue problem:
     one sub-group per band group will be used
     scalapack distributed-memory algorithm (size of sub-group:  2*  2 procs)

 
     Parallelization info
     --------------------
     sticks:   dense  smooth     PW     G-vecs:    dense   smooth      PW
     Min         262     126     36                 8825     2936     465
     Max         263     127     37                 8828     2938     467
     Sum       16819    8079   2353               564899   187971   29827
 
     Using Slab Decomposition
 


     bravais-lattice index     =            0
     lattice parameter (alat)  =      51.7756  a.u.
     unit-cell volume          =    2994.5794 (a.u.)^3
     number of atoms/cell      =           14
     number of atomic types    =            4
     number of electrons       =       138.00
     number of Kohn-Sham states=          166
     kinetic-energy cutoff     =      60.0000  Ry
     charge density cutoff     =     500.0000  Ry
     scf convergence threshold =      5.0E-06
     mixing beta               =       0.3000
     number of iterations used =            8  local-TF  mixing
     Exchange-correlation= SLA  PW   PBX  PBC
                           (   1   4   3   4   0   0   0)
     Noncollinear calculation with spin-orbit

     Hubbard projectors: ortho-atomic
     Hubbard parameters of DFT+U (Liechtenstein formulation) in eV:
     U(Mn1-3d) =  4.0000
     U(Mn2-3d) =  4.0000
     DFT+U on averaged j=l+1/2,l-1/2 radial WFs

     Internal variables: lda_plus_u = T, lda_plus_u_kind = 1

     celldm(1)=  51.775642  celldm(2)=   0.000000  celldm(3)=   0.000000
     celldm(4)=   0.000000  celldm(5)=   0.000000  celldm(6)=   0.000000

     crystal axes: (cart. coord. in units of alat)
               a(1) = (   0.079085  -0.045660   0.995822 )  
               a(2) = (   0.000000   0.091319   0.995822 )  
               a(3) = (  -0.079085  -0.045660   0.995822 )  

     reciprocal axes: (cart. coord. in units 2 pi/alat)
               b(1) = (  6.322314 -3.650196  0.334731 )  
               b(2) = (  0.000000  7.300392  0.334734 )  
               b(3) = ( -6.322314 -3.650196  0.334731 )  


     PseudoPot. # 1 for Mn read from file:
     ./Mn.rel-pbe-spn-kjpaw_psl.0.3.1.UPF
     MD5 check sum: dfba1c7561257014502ac20495784078
     Pseudo is Projector augmented-wave + core cor, Zval = 15.0
     Generated using &quot;atomic&quot; code by A. Dal Corso  v.6.2.2
     Shape of augmentation charge: PSQ
     Using radial grid of 1187 points, 10 beta functions with: 
                l(1) =   0
                l(2) =   0
                l(3) =   1
                l(4) =   1
                l(5) =   1
                l(6) =   1
                l(7) =   2
                l(8) =   2
                l(9) =   2
               l(10) =   2
     Q(r) pseudized with 0 coefficients 


     PseudoPot. # 2 for Mn read from file:
     ./Mn.rel-pbe-spn-kjpaw_psl.0.3.1.UPF
     MD5 check sum: dfba1c7561257014502ac20495784078
     Pseudo is Projector augmented-wave + core cor, Zval = 15.0
     Generated using &quot;atomic&quot; code by A. Dal Corso  v.6.2.2
     Shape of augmentation charge: PSQ
     Using radial grid of 1187 points, 10 beta functions with: 
                l(1) =   0
                l(2) =   0
                l(3) =   1
                l(4) =   1
                l(5) =   1
                l(6) =   1
                l(7) =   2
                l(8) =   2
                l(9) =   2
               l(10) =   2
     Q(r) pseudized with 0 coefficients 


     PseudoPot. # 3 for Bi read from file:
     ./Bi.rel-pbe-dn-kjpaw_psl.1.0.0.UPF
     MD5 check sum: 8010b987e9fb97324c8de82fb26a3f7d
     Pseudo is Projector augmented-wave + core cor, Zval = 15.0
     Generated using &quot;atomic&quot; code by A. Dal Corso  v.6.2.2
     Shape of augmentation charge: PSQ
     Using radial grid of 1283 points, 10 beta functions with: 
                l(1) =   0
                l(2) =   0
                l(3) =   1
                l(4) =   1
                l(5) =   1
                l(6) =   1
                l(7) =   2
                l(8) =   2
                l(9) =   2
               l(10) =   2
     Q(r) pseudized with 0 coefficients 


     PseudoPot. # 4 for Te read from file:
     ./Te.rel-pbe-n-kjpaw_psl.1.0.0.UPF
     MD5 check sum: 8399411061dffbb19b40ade5049f5146
     Pseudo is Projector augmented-wave + core cor, Zval =  6.0
     Generated using &quot;atomic&quot; code by A. Dal Corso  v.6.3
     Shape of augmentation charge: PSQ
     Using radial grid of 1245 points, 10 beta functions with: 
                l(1) =   0
                l(2) =   0
                l(3) =   1
                l(4) =   1
                l(5) =   1
                l(6) =   1
                l(7) =   2
                l(8) =   2
                l(9) =   2
               l(10) =   2
     Q(r) pseudized with 0 coefficients 


     atomic species   valence    mass     pseudopotential
        Mn1           15.00    54.93800     Mn( 1.00)
        Mn2           15.00    54.93800     Mn( 1.00)
        Bi            15.00   208.98000     Bi( 1.00)
        Te             6.00   127.60300     Te( 1.00)

      2 Sym. Ops. (no inversion) found


                                    s                        frac. trans.

      isym =  1     identity                                     

 Time Reversal            0
 cryst.   s( 1) = (     1          0          0      )
                  (     0          1          0      )
                  (     0          0          1      )

 cart.    s( 1) = (  1.0000000  0.0000000  0.0000000 )
                  (  0.0000000  1.0000000 -0.0000000 )
                  (  0.0000000  0.0000000  1.0000000 )


      isym =  2     inv. 180 deg rotation - cart. axis [1,0,0]   

 Time Reversal            1
 cryst.   s( 2) = (     0          0          1      )
                  (     0          1          0      )
                  (     1          0          0      )

 cart.    s( 2) = ( -1.0000000  0.0000000  0.0000000 )
                  (  0.0000000  1.0000000 -0.0000000 )
                  (  0.0000000  0.0000000  1.0000000 )


   Cartesian axes

     site n.     atom                  positions (alat units)
         1           Mn1 tau(   1) = (   0.0000000   0.0000000   0.0000000  )
         2           Mn2 tau(   2) = (   0.0000000   0.0000000   1.4937321  )
         3           Bi  tau(   3) = (   0.0000000   0.0000000   0.6350517  )
         4           Bi  tau(   4) = (   0.0000000   0.0000000   2.1280538  )
         5           Bi  tau(   5) = (   0.0000000   0.0000000   0.8586803  )
         6           Bi  tau(   6) = (   0.0000000   0.0000000   2.3531423  )
         7           Te  tau(   7) = (   0.0000000   0.0000000   0.1992041  )
         8           Te  tau(   8) = (   0.0000000   0.0000000   1.6929361  )
         9           Te  tau(   9) = (   0.0000000   0.0000000   1.2945279  )
        10           Te  tau(  10) = (   0.0000000   0.0000000   2.7882600  )
        11           Te  tau(  11) = (   0.0000000   0.0000000   0.4392469  )
        12           Te  tau(  12) = (   0.0000000   0.0000000   1.9329788  )
        13           Te  tau(  13) = (   0.0000000   0.0000000   1.0544852  )
        14           Te  tau(  14) = (   0.0000000   0.0000000   2.5482172  )

     --------------------------------------------
     DFT-D3 Dispersion Correction (3-body terms):
     --------------------------------------------
       Reference C6 values for interpolation: 

         atom   Coordination number   C6
         Mn1        0.000          1605.50
         Mn1        1.641           479.11
         Mn1        9.885           227.69
         Mn2        0.000          1605.50
         Mn2        1.641           479.11
         Mn2        9.885           227.69
         Te         0.000           851.07
         Te         0.981           850.20
         Te         1.964           837.16
         Bi         0.000          1235.06
         Bi         0.982          1188.09
         Bi         1.966          1132.10
         Bi         2.950          1067.76

       Values used:

         atom   Coordination number  R0_AB[au]  C6      C8
         Mn1        3.848            3.351    479.11  48433.79
         Mn2        3.848            3.351    479.11  48433.79
         Bi         5.262            3.890   1067.76 147315.96
         Bi         5.288            3.890   1067.76 147315.96
         Bi         5.262            3.890   1067.76 147315.96
         Bi         5.288            3.890   1067.76 147315.96
         Te         3.319            3.676    837.16  84978.06
         Te         3.337            3.676    837.16  84978.06
         Te         3.319            3.676    837.16  84978.06
         Te         3.337            3.676    837.16  84978.06
         Te         4.259            3.676    837.16  84978.05
         Te         4.216            3.676    837.16  84978.05
         Te         4.259            3.676    837.16  84978.05
         Te         4.216            3.676    837.16  84978.05

         Molecular C6 ( Ry / a.u.^6 ) =    164642.77


   Crystallographic axes

     site n.     atom                  positions (cryst. coord.)
         1           Mn1 tau(   1) = (  0.0000000  0.0000000  0.0000000  )
         2           Mn2 tau(   2) = (  0.4999980  0.5000035  0.4999980  )
         3           Bi  tau(   3) = (  0.2125713  0.2125737  0.2125713  )
         4           Bi  tau(   4) = (  0.7123250  0.7123328  0.7123250  )
         5           Bi  tau(   5) = (  0.2874267  0.2874298  0.2874267  )
         6           Bi  tau(   6) = (  0.7876691  0.7876777  0.7876691  )
         7           Te  tau(   7) = (  0.0666798  0.0666805  0.0666798  )
         8           Te  tau(   8) = (  0.5666778  0.5666840  0.5666778  )
         9           Te  tau(   9) = (  0.4333183  0.4333230  0.4333183  )
        10           Te  tau(  10) = (  0.9333163  0.9333266  0.9333163  )
        11           Te  tau(  11) = (  0.1470294  0.1470310  0.1470294  )
        12           Te  tau(  12) = (  0.6470274  0.6470345  0.6470274  )
        13           Te  tau(  13) = (  0.3529686  0.3529725  0.3529686  )
        14           Te  tau(  14) = (  0.8529666  0.8529760  0.8529666  )

     number of k points=    36  Marzari-Vanderbilt smearing, width (Ry)=  0.0100
                       cart. coord. in units 2pi/alat
        k(    1) = (   0.0000000   0.0000000   0.0000000), wk =   0.0156250
        k(    2) = (  -1.5805784  -0.9125490   0.0836827), wk =   0.0312500
        k(    3) = (   3.1611569   1.8250979  -0.1673654), wk =   0.0312500
        k(    4) = (   0.0000000   1.8250979   0.0836836), wk =   0.0312500
        k(    5) = (  -1.5805784   0.9125490   0.1673663), wk =   0.0312500
        k(    6) = (   3.1611569   3.6501959  -0.0836818), wk =   0.0312500
        k(    7) = (   1.5805784   2.7376469   0.0000009), wk =   0.0312500
        k(    8) = (   0.0000000  -3.6501959  -0.1673672), wk =   0.0156250
        k(    9) = (  -1.5805784  -4.5627449  -0.0836845), wk =   0.0312500
        k(   10) = (   3.1611569  -1.8250979  -0.3347326), wk =   0.0312500
        k(   11) = (   0.0000000  -1.8250979   0.1673654), wk =   0.0312500
        k(   12) = (   4.7417353   0.9125490  -0.0836827), wk =   0.0312500
        k(   13) = (   3.1611569   0.0000000   0.0000000), wk =   0.0156250
        k(   14) = (   0.0000000   0.0000000   0.2510490), wk =   0.0312500
        k(   15) = (   4.7417353   2.7376469   0.0000009), wk =   0.0312500
        k(   16) = (   3.1611569   1.8250979   0.0836836), wk =   0.0312500
        k(   17) = (   0.0000000  -5.4752938  -0.0000018), wk =   0.0312500
        k(   18) = (   4.7417353  -2.7376469  -0.2510499), wk =   0.0312500
        k(   19) = (   3.1611569  -3.6501959  -0.1673672), wk =   0.0156250
        k(   20) = (   0.0000000  -3.6501959   0.0836818), wk =   0.0312500
        k(   21) = (   4.7417353  -0.9125490  -0.1673663), wk =   0.0312500
        k(   22) = (   0.0000000   3.6501959  -0.3347307), wk =   0.0156250
        k(   23) = (   0.0000000   5.4752938  -0.2510471), wk =   0.0312500
        k(   24) = (   0.0000000   0.0000000  -0.5020979), wk =   0.0156250
        k(   25) = (   1.5805784  -0.9125490   0.0836827), wk =   0.0312500
        k(   26) = (   1.5805784   0.9125490   0.1673663), wk =   0.0312500
        k(   27) = (  -3.1611569   3.6501959  -0.0836818), wk =   0.0312500
        k(   28) = (  -1.5805784   2.7376469   0.0000009), wk =   0.0312500
        k(   29) = (   1.5805784  -4.5627449  -0.0836845), wk =   0.0312500
        k(   30) = (  -4.7417353   0.9125490  -0.0836827), wk =   0.0312500
        k(   31) = (  -3.1611569   0.0000000   0.0000000), wk =   0.0156250
        k(   32) = (  -4.7417353   2.7376469   0.0000009), wk =   0.0312500
        k(   33) = (  -3.1611569   1.8250979   0.0836836), wk =   0.0312500
        k(   34) = (  -4.7417353  -2.7376469  -0.2510499), wk =   0.0312500
        k(   35) = (  -3.1611569  -3.6501959  -0.1673672), wk =   0.0156250
        k(   36) = (  -4.7417353  -0.9125490  -0.1673663), wk =   0.0312500

                       cryst. coord.
        k(    1) = (   0.0000000   0.0000000   0.0000000), wk =   0.0156250
        k(    2) = (   0.0000000   0.0000000   0.2500000), wk =   0.0312500
        k(    3) = (   0.0000000  -0.0000000  -0.5000000), wk =   0.0312500
        k(    4) = (   0.0000000   0.2500000   0.0000000), wk =   0.0312500
        k(    5) = (   0.0000000   0.2500000   0.2500000), wk =   0.0312500
        k(    6) = (   0.0000000   0.2500000  -0.5000000), wk =   0.0312500
        k(    7) = (   0.0000000   0.2500000  -0.2500000), wk =   0.0312500
        k(    8) = (   0.0000000  -0.5000000   0.0000000), wk =   0.0156250
        k(    9) = (   0.0000000  -0.5000000   0.2500000), wk =   0.0312500
        k(   10) = (   0.0000000  -0.5000000  -0.5000000), wk =   0.0312500
        k(   11) = (   0.2500000   0.0000000   0.2500000), wk =   0.0312500
        k(   12) = (   0.2500000  -0.0000000  -0.5000000), wk =   0.0312500
        k(   13) = (   0.2500000   0.0000000  -0.2500000), wk =   0.0156250
        k(   14) = (   0.2500000   0.2500000   0.2500000), wk =   0.0312500
        k(   15) = (   0.2500000   0.2500000  -0.5000000), wk =   0.0312500
        k(   16) = (   0.2500000   0.2500000  -0.2500000), wk =   0.0312500
        k(   17) = (   0.2500000  -0.5000000   0.2500000), wk =   0.0312500
        k(   18) = (   0.2500000  -0.5000000  -0.5000000), wk =   0.0312500
        k(   19) = (   0.2500000  -0.5000000  -0.2500000), wk =   0.0156250
        k(   20) = (   0.2500000  -0.2500000   0.2500000), wk =   0.0312500
        k(   21) = (   0.2500000  -0.2500000  -0.5000000), wk =   0.0312500
        k(   22) = (  -0.5000000  -0.0000000  -0.5000000), wk =   0.0156250
        k(   23) = (  -0.5000000   0.2500000  -0.5000000), wk =   0.0312500
        k(   24) = (  -0.5000000  -0.5000000  -0.5000000), wk =   0.0156250
        k(   25) = (   0.2500000   0.0000000   0.0000000), wk =   0.0312500
        k(   26) = (   0.2500000   0.2500000   0.0000000), wk =   0.0312500
        k(   27) = (  -0.5000000   0.2500000   0.0000000), wk =   0.0312500
        k(   28) = (  -0.2500000   0.2500000   0.0000000), wk =   0.0312500
        k(   29) = (   0.2500000  -0.5000000   0.0000000), wk =   0.0312500
        k(   30) = (  -0.5000000  -0.0000000   0.2500000), wk =   0.0312500
        k(   31) = (  -0.2500000   0.0000000   0.2500000), wk =   0.0156250
        k(   32) = (  -0.5000000   0.2500000   0.2500000), wk =   0.0312500
        k(   33) = (  -0.2500000   0.2500000   0.2500000), wk =   0.0312500
        k(   34) = (  -0.5000000  -0.5000000   0.2500000), wk =   0.0312500
        k(   35) = (  -0.2500000  -0.5000000   0.2500000), wk =   0.0156250
        k(   36) = (  -0.5000000  -0.2500000   0.2500000), wk =   0.0312500

     Dense  grid:   564899 G-vectors     FFT dimensions: ( 375, 375, 375)

     Smooth grid:   187971 G-vectors     FFT dimensions: ( 256, 256, 256)

     Dynamical RAM for                 wfc:       1.86 MB

     Dynamical RAM for     wfc (w. buffer):      68.79 MB

     Dynamical RAM for             U proj.:       0.49 MB

     Dynamical RAM for  U proj. (w. buff.):      18.23 MB

     Dynamical RAM for           str. fact:       0.54 MB

     Dynamical RAM for           local pot:       0.00 MB

     Dynamical RAM for          nlocal pot:       2.67 MB

     Dynamical RAM for                qrad:      18.80 MB

     Dynamical RAM for          rho,v,vnew:      78.86 MB

     Dynamical RAM for               rhoin:      26.29 MB

     Dynamical RAM for            rho*nmix:       8.62 MB

     Dynamical RAM for           G-vectors:       0.53 MB

     Dynamical RAM for          h,s,v(r/c):       1.26 MB

     Dynamical RAM for          <psi|beta>:       2.41 MB

     Dynamical RAM for                 psi:       3.72 MB

     Dynamical RAM for                hpsi:       3.72 MB

     Dynamical RAM for                spsi:       3.72 MB

     Dynamical RAM for      wfcinit/wfcrot:       3.67 MB

     Dynamical RAM for           addusdens:      83.65 MB

     Estimated static dynamical RAM per process >     266.88 MB

     Estimated max dynamical RAM per process >     359.15 MB

     Estimated total dynamical RAM >      22.45 GB
     Generating pointlists ...
     new r_m :   0.0448 (alat units)  2.3181 (a.u.) for type    1
     new r_m :   0.0448 (alat units)  2.3181 (a.u.) for type    2
     new r_m :   0.0455 (alat units)  2.3581 (a.u.) for type    3
     new r_m :   0.0448 (alat units)  2.3181 (a.u.) for type    4

     Initial potential from superposition of free atoms

     starting charge     137.9938, renormalised to     138.0000
 --- in v_hubbard ---
Hub. E (dc, noflip, flip, total)    5.8799   5.8799  -0.0000   0.0000
 -------

     STARTING HUBBARD OCCUPATIONS:

     ================= HUBBARD OCCUPATIONS ================
     ------------------------ ATOM    1 ------------------------
     Tr[ns(  1)] (up, down, total) =   5.00000  0.00000  5.00000
     eigenvalues:
       0.000  0.000  0.000  0.000  0.000  1.000  1.000  1.000  1.000  1.000
     eigenvectors (columns):
       0.000  0.000  0.000  0.000  0.000  1.000  0.000  0.000  0.000  0.000
       0.000  0.000  0.000  0.000  0.000  0.000  1.000  0.000  0.000  0.000
       0.000  0.000  0.000  0.000  0.000  0.000  0.000  1.000  0.000  0.000
       0.000  0.000  0.000  0.000  0.000  0.000  0.000  0.000  1.000  0.000
       0.000  0.000  0.000  0.000  0.000  0.000  0.000  0.000  0.000  1.000
       1.000  0.000  0.000  0.000  0.000  0.000  0.000  0.000  0.000  0.000
       0.000  1.000  0.000  0.000  0.000  0.000  0.000  0.000  0.000  0.000
       0.000  0.000  1.000  0.000  0.000  0.000  0.000  0.000  0.000  0.000
       0.000  0.000  0.000  1.000  0.000  0.000  0.000  0.000  0.000  0.000
       0.000  0.000  0.000  0.000  1.000  0.000  0.000  0.000  0.000  0.000
     occupations, | n_(i1, i2)^(sigma1, sigma2) |:
       1.000  0.000  0.000  0.000  0.000  0.000  0.000  0.000  0.000  0.000
       0.000  1.000  0.000  0.000  0.000  0.000  0.000  0.000  0.000  0.000
       0.000  0.000  1.000  0.000  0.000  0.000  0.000  0.000  0.000  0.000
       0.000  0.000  0.000  1.000  0.000  0.000  0.000  0.000  0.000  0.000
       0.000  0.000  0.000  0.000  1.000  0.000  0.000  0.000  0.000  0.000
       0.000  0.000  0.000  0.000  0.000  0.000  0.000  0.000  0.000  0.000
       0.000  0.000  0.000  0.000  0.000  0.000  0.000  0.000  0.000  0.000
       0.000  0.000  0.000  0.000  0.000  0.000  0.000  0.000  0.000  0.000
       0.000  0.000  0.000  0.000  0.000  0.000  0.000  0.000  0.000  0.000
       0.000  0.000  0.000  0.000  0.000  0.000  0.000  0.000  0.000  0.000
     Atomic magnetic moment mx, my, mz =     0.000000    0.000000    5.000000
     ------------------------ ATOM    2 ------------------------
     Tr[ns(  2)] (up, down, total) =   0.00000  5.00000  5.00000
     eigenvalues:
      -0.000 -0.000 -0.000 -0.000 -0.000  1.000  1.000  1.000  1.000  1.000
     eigenvectors (columns):
       0.000  0.000  1.000  0.000  0.000  0.000  0.000  0.000  0.000  0.000
      -1.000  0.000  0.000  0.000  0.000  0.000  0.000 -0.000  0.000  0.000
       0.000  0.000  0.000  1.000  0.000  0.000  0.000  0.000  0.000  0.000
       0.000 -1.000  0.000  0.000  0.000  0.000  0.000  0.000  0.000  0.000
       0.000  0.000  0.000  0.000  1.000  0.000  0.000  0.000  0.000  0.000
       0.000  0.000 -0.000  0.000  0.000  0.000  0.000  0.000  0.000  1.000
       0.000  0.000  0.000  0.000  0.000  0.000  0.000 -1.000  0.000  0.000
       0.000  0.000  0.000 -0.000  0.000  0.000  1.000  0.000  0.000  0.000
       0.000  0.000  0.000  0.000  0.000  1.000  0.000  0.000  0.000  0.000
       0.000  0.000  0.000  0.000 -0.000  0.000  0.000  0.000  1.000  0.000
     occupations, | n_(i1, i2)^(sigma1, sigma2) |:
       0.000  0.000  0.000  0.000  0.000  0.000  0.000  0.000  0.000  0.000
       0.000  0.000  0.000  0.000  0.000  0.000  0.000  0.000  0.000  0.000
       0.000  0.000  0.000  0.000  0.000  0.000  0.000  0.000  0.000  0.000
       0.000  0.000  0.000  0.000  0.000  0.000  0.000  0.000  0.000  0.000
       0.000  0.000  0.000  0.000  0.000  0.000  0.000  0.000  0.000  0.000
       0.000  0.000  0.000  0.000  0.000  1.000  0.000  0.000  0.000  0.000
       0.000  0.000  0.000  0.000  0.000  0.000  1.000  0.000  0.000  0.000
       0.000  0.000  0.000  0.000  0.000  0.000  0.000  1.000  0.000  0.000
       0.000  0.000  0.000  0.000  0.000  0.000  0.000  0.000  1.000  0.000
       0.000  0.000  0.000  0.000  0.000  0.000  0.000  0.000  0.000  1.000
     Atomic magnetic moment mx, my, mz =     0.000000    0.000000   -5.000000

     Number of occupied Hubbard levels =   10.0000

 ==============================================================================
     atom number    1 relative position :    0.0000   0.0000   0.0000
     charge :    13.702449  (integrated on a sphere of radius 0.045)
     magnetization :         -0.000000    0.000000    4.474621
     magnetization/charge:   -0.000000    0.000000    0.326556
     polar coord.: r, theta, phi [deg] :     4.474621    0.000000  360.000000

 ==============================================================================

 ==============================================================================
     atom number    2 relative position :    0.0000   0.0000   1.4937
     charge :    13.702544  (integrated on a sphere of radius 0.045)
     magnetization :          0.000000    0.000000   -4.474646
     magnetization/charge:    0.000000    0.000000   -0.326556
     polar coord.: r, theta, phi [deg] :     4.474646  180.000000  360.000000

 ==============================================================================

 ==============================================================================
     atom number    3 relative position :    0.0000   0.0000   0.6351
     charge :    12.822929  (integrated on a sphere of radius 0.046)
     magnetization :          0.000000    0.000000   -0.000757
     magnetization/charge:    0.000000    0.000000   -0.000059
     polar coord.: r, theta, phi [deg] :     0.000757  180.000000  360.000000

 ==============================================================================

 ==============================================================================
     atom number    4 relative position :    0.0000   0.0000   2.1281
     charge :    12.821034  (integrated on a sphere of radius 0.046)
     magnetization :          0.000000    0.000000    0.000791
     magnetization/charge:    0.000000    0.000000    0.000062
     polar coord.: r, theta, phi [deg] :     0.000791    0.000000  360.000000

 ==============================================================================

 ==============================================================================
     atom number    5 relative position :    0.0000   0.0000   0.8587
     charge :    12.822856  (integrated on a sphere of radius 0.046)
     magnetization :          0.000000    0.000000    0.000757
     magnetization/charge:    0.000000    0.000000    0.000059
     polar coord.: r, theta, phi [deg] :     0.000757    0.000000  360.000000

 ==============================================================================

 ==============================================================================
     atom number    6 relative position :    0.0000   0.0000   2.3531
     charge :    12.821115  (integrated on a sphere of radius 0.046)
     magnetization :          0.000000    0.000000   -0.000791
     magnetization/charge:    0.000000    0.000000   -0.000062
     polar coord.: r, theta, phi [deg] :     0.000791  180.000000  360.000000

 ==============================================================================

 ==============================================================================
     atom number    7 relative position :    0.0000   0.0000   0.1992
     charge :     3.752729  (integrated on a sphere of radius 0.045)
     magnetization :         -0.000000    0.000000    0.000018
     magnetization/charge:   -0.000000    0.000000    0.000005
     polar coord.: r, theta, phi [deg] :     0.000018    0.000000  360.000000

 ==============================================================================

 ==============================================================================
     atom number    8 relative position :    0.0000   0.0000   1.6929
     charge :     3.756683  (integrated on a sphere of radius 0.045)
     magnetization :          0.000000    0.000000   -0.000018
     magnetization/charge:    0.000000    0.000000   -0.000005
     polar coord.: r, theta, phi [deg] :     0.000018  180.000000  360.000000

 ==============================================================================

 ==============================================================================
     atom number    9 relative position :    0.0000   0.0000   1.2945
     charge :     3.752894  (integrated on a sphere of radius 0.045)
     magnetization :          0.000000    0.000000   -0.000018
     magnetization/charge:    0.000000    0.000000   -0.000005
     polar coord.: r, theta, phi [deg] :     0.000018  180.000000  360.000000

 ==============================================================================

 ==============================================================================
     atom number   10 relative position :    0.0000   0.0000   2.7883
     charge :     3.756519  (integrated on a sphere of radius 0.045)
     magnetization :         -0.000000    0.000000    0.000018
     magnetization/charge:   -0.000000    0.000000    0.000005
     polar coord.: r, theta, phi [deg] :     0.000018    0.000000  360.000000

 ==============================================================================

 ==============================================================================
     atom number   11 relative position :    0.0000   0.0000   0.4392
     charge :     3.789432  (integrated on a sphere of radius 0.045)
     magnetization :          0.000000    0.000000   -0.035315
     magnetization/charge:    0.000000    0.000000   -0.009319
     polar coord.: r, theta, phi [deg] :     0.035315  180.000000  360.000000

 ==============================================================================

 ==============================================================================
     atom number   12 relative position :    0.0000   0.0000   1.9330
     charge :     3.787204  (integrated on a sphere of radius 0.045)
     magnetization :          0.000000    0.000000    0.035312
     magnetization/charge:    0.000000    0.000000    0.009324
     polar coord.: r, theta, phi [deg] :     0.035312    0.000000  360.000000

 ==============================================================================

 ==============================================================================
     atom number   13 relative position :    0.0000   0.0000   1.0545
     charge :     3.789298  (integrated on a sphere of radius 0.045)
     magnetization :          0.000000    0.000000    0.035313
     magnetization/charge:    0.000000    0.000000    0.009319
     polar coord.: r, theta, phi [deg] :     0.035313    0.000000  360.000000

 ==============================================================================

 ==============================================================================
     atom number   14 relative position :    0.0000   0.0000   2.5482
     charge :     3.787341  (integrated on a sphere of radius 0.045)
     magnetization :          0.000000    0.000000   -0.035315
     magnetization/charge:    0.000000    0.000000   -0.009324
     polar coord.: r, theta, phi [deg] :     0.035315  180.000000  360.000000

 ==============================================================================

     Atomic wfc used for Hubbard projectors are orthogonalized

     Starting wfcs are  176 randomized atomic wfcs
     Checking if some PAW data can be deallocated... 
       PAW data deallocated on   59 nodes for type:  1
       PAW data deallocated on   59 nodes for type:  2
       PAW data deallocated on   44 nodes for type:  3
       PAW data deallocated on   30 nodes for type:  4

     total cpu time spent up to now is      267.1 secs

     Self-consistent Calculation

     iteration #  1     ecut=    60.00 Ry     beta= 0.30
     Davidson diagonalization with overlap

---- Real-time Memory Report at c_bands before calling an iterative solver
           448 MiB given to the printing process from OS
             0 MiB allocation reported by mallinfo(arena+hblkhd)
        229539 MiB available memory on the node where the printing process lives
------------------
     ethr =  1.00E-02,  avg # of iterations =  3.2

     ================= HUBBARD OCCUPATIONS ================
     ------------------------ ATOM    1 ------------------------
     Tr[ns(  1)] (up, down, total) =   4.98694  0.29986  5.28680
     eigenvalues:
       0.021  0.021  0.022  0.117  0.118  0.995  0.995  0.999  0.999  0.999
     eigenvectors (columns):
       0.001 -0.001  0.004  0.005 -0.002 -0.002  0.000 -0.013 -0.999  0.032
      -0.000 -0.000  0.000  0.000  0.000  0.000 -0.000 -0.000  0.000 -0.000
       0.004  0.002  0.001  0.002  0.002  0.540 -0.504 -0.454 -0.011 -0.498
       0.001 -0.002  0.000  0.002  0.002 -0.466  0.486 -0.526 -0.008 -0.519
      -0.000 -0.000 -0.000  0.000  0.000 -0.000  0.000 -0.000  0.000 -0.000
       0.000  0.000 -0.000  0.000  0.000  0.000 -0.000 -0.000 -0.000 -0.000
      -0.019  0.446  0.394  0.294 -0.748  0.001  0.003 -0.000  0.004 -0.002
       0.000 -0.000  0.000 -0.000 -0.000 -0.000  0.000  0.000  0.000 -0.000
       0.000 -0.000  0.000  0.000  0.000 -0.000  0.000  0.000  0.000 -0.000
      -0.023  0.554  0.581 -0.170  0.571  0.000  0.003 -0.000  0.000  0.003
     occupations, | n_(i1, i2)^(sigma1, sigma2) |:
       0.999  0.000  0.000  0.000  0.000  0.001  0.004  0.005  0.000  0.000
       0.000  0.997  0.000  0.000  0.002  0.005  0.001  0.000  0.003  0.003
       0.000  0.000  0.997  0.002  0.000  0.004  0.000  0.001  0.002  0.002
       0.000  0.000  0.002  0.997  0.000  0.000  0.002  0.003  0.000  0.000
       0.000  0.002  0.000  0.000  0.997  0.001  0.002  0.002  0.000  0.000
       0.001  0.005  0.004  0.000  0.001  0.021  0.000  0.000  0.000  0.000
       0.004  0.001  0.000  0.002  0.002  0.000  0.084  0.004  0.002  0.046
       0.005  0.000  0.001  0.003  0.002  0.000  0.004  0.083  0.045  0.002
       0.000  0.003  0.002  0.000  0.000  0.000  0.002  0.045  0.056  0.004
       0.000  0.003  0.002  0.000  0.000  0.000  0.046  0.002  0.004  0.056
     Atomic magnetic moment mx, my, mz =     0.000000   -0.002779    4.687078
     ------------------------ ATOM    2 ------------------------
     Tr[ns(  2)] (up, down, total) =   0.30376  4.98701  5.29077
     eigenvalues:
       0.022  0.022  0.023  0.118  0.119  0.995  0.995  0.999  0.999  0.999
     eigenvectors (columns):
       0.366  0.929 -0.055 -0.003  0.003 -0.005  0.000  0.005  0.000 -0.000
      -0.000  0.000 -0.000  0.000  0.000 -0.000 -0.000 -0.000 -0.000  0.000
       0.404 -0.138  0.415 -0.490  0.636  0.000 -0.003 -0.000 -0.004  0.003
       0.501 -0.159  0.607  0.322 -0.501 -0.000 -0.002 -0.001 -0.001 -0.003
      -0.000  0.000 -0.000 -0.000 -0.000 -0.000 -0.000  0.000 -0.000 -0.000
       0.000 -0.000  0.000 -0.000 -0.000 -0.000  0.000 -0.000 -0.000  0.000
      -0.001  0.006 -0.000  0.001  0.002  0.535 -0.507 -0.460 -0.072 -0.489
       0.000  0.000 -0.000  0.000  0.000 -0.000 -0.000  0.000 -0.000 -0.000
       0.000  0.000  0.000  0.000  0.000  0.000  0.000  0.000 -0.000 -0.000
       0.002 -0.001 -0.001 -0.001  0.003 -0.464  0.491 -0.531 -0.074 -0.506
     occupations, | n_(i1, i2)^(sigma1, sigma2) |:
       0.022  0.000  0.000  0.000  0.000  0.000  0.005  0.005  0.000  0.000
       0.000  0.084  0.004  0.002  0.046  0.004  0.000  0.000  0.002  0.002
       0.000  0.004  0.085  0.046  0.002  0.004  0.000  0.000  0.003  0.003
       0.000  0.002  0.046  0.057  0.004  0.001  0.003  0.002  0.001  0.001
       0.000  0.046  0.002  0.004  0.056  0.001  0.003  0.002  0.001  0.001
       0.000  0.004  0.004  0.001  0.001  0.999  0.000  0.000  0.000  0.000
       0.005  0.000  0.000  0.003  0.003  0.000  0.997  0.000  0.000  0.002
       0.005  0.000  0.000  0.002  0.002  0.000  0.000  0.997  0.002  0.000
       0.000  0.002  0.003  0.001  0.001  0.000  0.000  0.002  0.997  0.000
       0.000  0.002  0.003  0.001  0.001  0.000  0.002  0.000  0.000  0.997
     Atomic magnetic moment mx, my, mz =     0.000000   -0.001286   -4.683247

     Number of occupied Hubbard levels =   10.5776

     Threshold (ethr) on eigenvalues was too large:
     Diagonalizing with lowered threshold

     Davidson diagonalization with overlap

---- Real-time Memory Report at c_bands before calling an iterative solver
           526 MiB given to the printing process from OS
             0 MiB allocation reported by mallinfo(arena+hblkhd)
        228405 MiB available memory on the node where the printing process lives
------------------
     ethr =  4.00E-04,  avg # of iterations =  3.5

     ================= HUBBARD OCCUPATIONS ================
     ------------------------ ATOM    1 ------------------------
     Tr[ns(  1)] (up, down, total) =   4.98537  0.30016  5.28553
     eigenvalues:
       0.021  0.022  0.022  0.117  0.118  0.994  0.995  0.999  0.999  0.999
     eigenvectors (columns):
      -0.001 -0.001  0.004 -0.005  0.002  0.001 -0.001 -0.011 -0.942 -0.335
      -0.000  0.000  0.000 -0.000 -0.000  0.000  0.000 -0.000  0.000  0.000
      -0.004  0.002  0.001 -0.002 -0.003 -0.540  0.506 -0.440 -0.167  0.481
      -0.001 -0.002  0.000 -0.001 -0.002  0.470 -0.482 -0.510 -0.173  0.507
      -0.000  0.000 -0.000 -0.000 -0.000 -0.000 -0.000 -0.000  0.000  0.000
       0.000 -0.000  0.000 -0.000 -0.000  0.000  0.000 -0.000 -0.000  0.000
       0.018  0.446  0.394 -0.310  0.741 -0.001 -0.003 -0.000  0.003  0.004
      -0.000 -0.000  0.000  0.000  0.000 -0.000 -0.000  0.000  0.000  0.000
      -0.000 -0.000  0.000 -0.000 -0.000 -0.000 -0.000  0.000  0.000  0.000
       0.022  0.554  0.581  0.182 -0.568  0.000 -0.003 -0.000  0.001 -0.002
     occupations, | n_(i1, i2)^(sigma1, sigma2) |:
       0.999  0.000  0.000  0.000  0.000  0.001  0.004  0.005  0.000  0.000
       0.000  0.996  0.000  0.000  0.002  0.005  0.001  0.000  0.003  0.003
       0.000  0.000  0.996  0.002  0.000  0.004  0.000  0.001  0.002  0.002
       0.000  0.000  0.002  0.997  0.000  0.000  0.002  0.003  0.000  0.000
       0.000  0.002  0.000  0.000  0.997  0.001  0.002  0.002  0.000  0.000
       0.001  0.005  0.004  0.000  0.001  0.021  0.000  0.000  0.000  0.000
       0.004  0.001  0.000  0.002  0.002  0.000  0.084  0.004  0.002  0.046
       0.005  0.000  0.001  0.003  0.002  0.000  0.004  0.083  0.045  0.002
       0.000  0.003  0.002  0.000  0.000  0.000  0.002  0.045  0.056  0.004
       0.000  0.003  0.002  0.000  0.000  0.000  0.046  0.002  0.004  0.056
     Atomic magnetic moment mx, my, mz =     0.000000   -0.002936    4.685214
     ------------------------ ATOM    2 ------------------------
     Tr[ns(  2)] (up, down, total) =   0.30372  4.98541  5.28913
     eigenvalues:
       0.022  0.022  0.023  0.118  0.119  0.994  0.995  0.999  0.999  0.999
     eigenvectors (columns):
       0.589  0.807 -0.053 -0.003  0.003 -0.005  0.000 -0.005  0.000 -0.000
       0.000  0.000 -0.000  0.000  0.000 -0.000 -0.000  0.000 -0.000 -0.000
       0.358 -0.239  0.411 -0.486  0.640  0.000 -0.003  0.000 -0.004 -0.004
       0.449 -0.284  0.603  0.318 -0.503 -0.000 -0.002  0.001 -0.001  0.003
       0.000  0.000 -0.000 -0.000 -0.000 -0.000 -0.000 -0.000 -0.000  0.000
       0.000 -0.000  0.000 -0.000 -0.000 -0.000  0.000  0.000 -0.000 -0.000
       0.000  0.006 -0.000  0.001  0.002  0.529 -0.515  0.434 -0.106  0.505
       0.000  0.000  0.000  0.000  0.000 -0.000 -0.000 -0.000 -0.000  0.000
       0.000  0.000  0.000  0.000  0.000  0.000  0.000 -0.000 -0.000  0.000
       0.002 -0.001 -0.001 -0.001  0.003 -0.462  0.492  0.500 -0.111  0.531
     occupations, | n_(i1, i2)^(sigma1, sigma2) |:
       0.022  0.000  0.000  0.000  0.000  0.000  0.005  0.005  0.000  0.000
       0.000  0.084  0.004  0.002  0.046  0.004  0.000  0.000  0.002  0.002
       0.000  0.004  0.085  0.046  0.002  0.004  0.000  0.000  0.003  0.003
       0.000  0.002  0.046  0.057  0.004  0.000  0.003  0.002  0.001  0.001
       0.000  0.046  0.002  0.004  0.057  0.001  0.003  0.002  0.001  0.001
       0.000  0.004  0.004  0.000  0.001  0.999  0.000  0.000  0.000  0.000
       0.005  0.000  0.000  0.003  0.003  0.000  0.996  0.000  0.000  0.002
       0.005  0.000  0.000  0.002  0.002  0.000  0.000  0.996  0.002  0.000
       0.000  0.002  0.003  0.001  0.001  0.000  0.000  0.002  0.997  0.000
       0.000  0.002  0.003  0.001  0.001  0.000  0.002  0.000  0.000  0.997
     Atomic magnetic moment mx, my, mz =     0.000000   -0.001295   -4.681686

     Number of occupied Hubbard levels =   10.5747
 --- in v_hubbard ---
Hub. E (dc, noflip, flip, total)    6.6673   6.7514  -0.0001   0.0840
 -------

 ==============================================================================
     atom number    1 relative position :    0.0000   0.0000   0.0000
     charge :    13.670847  (integrated on a sphere of radius 0.045)
     magnetization :         -0.000000   -0.000460    4.517474
     magnetization/charge:   -0.000000   -0.000034    0.330446
     polar coord.: r, theta, phi [deg] :     4.517474    0.005829  -90.000000

 ==============================================================================

 ==============================================================================
     atom number    2 relative position :    0.0000   0.0000   1.4937
     charge :    13.671120  (integrated on a sphere of radius 0.045)
     magnetization :          0.000000   -0.000135   -4.517526
     magnetization/charge:    0.000000   -0.000010   -0.330443
     polar coord.: r, theta, phi [deg] :     4.517526  179.998293  -90.000000

 ==============================================================================

 ==============================================================================
     atom number    3 relative position :    0.0000   0.0000   0.6351
     charge :    12.780853  (integrated on a sphere of radius 0.046)
     magnetization :         -0.000000   -0.000454   -0.003205
     magnetization/charge:   -0.000000   -0.000036   -0.000251
     polar coord.: r, theta, phi [deg] :     0.003237  171.933731  -90.000000

 ==============================================================================

 ==============================================================================
     atom number    4 relative position :    0.0000   0.0000   2.1281
     charge :    12.778693  (integrated on a sphere of radius 0.046)
     magnetization :         -0.000000   -0.000149    0.003299
     magnetization/charge:   -0.000000   -0.000012    0.000258
     polar coord.: r, theta, phi [deg] :     0.003302    2.594314  -90.000000

 ==============================================================================

 ==============================================================================
     atom number    5 relative position :    0.0000   0.0000   0.8587
     charge :    12.780699  (integrated on a sphere of radius 0.046)
     magnetization :         -0.000000   -0.000168    0.003297
     magnetization/charge:   -0.000000   -0.000013    0.000258
     polar coord.: r, theta, phi [deg] :     0.003301    2.921162  -90.000000

 ==============================================================================

 ==============================================================================
     atom number    6 relative position :    0.0000   0.0000   2.3531
     charge :    12.779043  (integrated on a sphere of radius 0.046)
     magnetization :         -0.000000    0.000907   -0.003616
     magnetization/charge:   -0.000000    0.000071   -0.000283
     polar coord.: r, theta, phi [deg] :     0.003728  165.925298   90.000000

 ==============================================================================

 ==============================================================================
     atom number    7 relative position :    0.0000   0.0000   0.1992
     charge :     3.769032  (integrated on a sphere of radius 0.045)
     magnetization :         -0.000000   -0.000345    0.003405
     magnetization/charge:   -0.000000   -0.000092    0.000903
     polar coord.: r, theta, phi [deg] :     0.003423    5.783806  -90.000000

 ==============================================================================

 ==============================================================================
     atom number    8 relative position :    0.0000   0.0000   1.6929
     charge :     3.772947  (integrated on a sphere of radius 0.045)
     magnetization :          0.000000   -0.000872   -0.003549
     magnetization/charge:    0.000000   -0.000231   -0.000941
     polar coord.: r, theta, phi [deg] :     0.003655  166.195938  -90.000000

 ==============================================================================

 ==============================================================================
     atom number    9 relative position :    0.0000   0.0000   1.2945
     charge :     3.767972  (integrated on a sphere of radius 0.045)
     magnetization :         -0.000000   -0.000665   -0.003031
     magnetization/charge:   -0.000000   -0.000176   -0.000804
     polar coord.: r, theta, phi [deg] :     0.003103  167.628847  -90.000000

 ==============================================================================

 ==============================================================================
     atom number   10 relative position :    0.0000   0.0000   2.7883
     charge :     3.773018  (integrated on a sphere of radius 0.045)
     magnetization :          0.000000   -0.000730    0.003050
     magnetization/charge:    0.000000   -0.000193    0.000808
     polar coord.: r, theta, phi [deg] :     0.003136   13.460760  -90.000000

 ==============================================================================

 ==============================================================================
     atom number   11 relative position :    0.0000   0.0000   0.4392
     charge :     3.817990  (integrated on a sphere of radius 0.045)
     magnetization :          0.000000   -0.001334   -0.030211
     magnetization/charge:    0.000000   -0.000349   -0.007913
     polar coord.: r, theta, phi [deg] :     0.030240  177.472407  -90.000000

 ==============================================================================

 ==============================================================================
     atom number   12 relative position :    0.0000   0.0000   1.9330
     charge :     3.817319  (integrated on a sphere of radius 0.045)
     magnetization :          0.000000   -0.001552    0.030544
     magnetization/charge:    0.000000   -0.000407    0.008002
     polar coord.: r, theta, phi [deg] :     0.030584    2.908421  -90.000000

 ==============================================================================

 ==============================================================================
     atom number   13 relative position :    0.0000   0.0000   1.0545
     charge :     3.819544  (integrated on a sphere of radius 0.045)
     magnetization :         -0.000000    0.000185    0.029928
     magnetization/charge:   -0.000000    0.000048    0.007836
     polar coord.: r, theta, phi [deg] :     0.029929    0.354273   90.000000

 ==============================================================================

 ==============================================================================
     atom number   14 relative position :    0.0000   0.0000   2.5482
     charge :     3.817303  (integrated on a sphere of radius 0.045)
     magnetization :         -0.000000    0.000096   -0.030091
     magnetization/charge:   -0.000000    0.000025   -0.007883
     polar coord.: r, theta, phi [deg] :     0.030091  179.817246   90.000000

 ==============================================================================

     total cpu time spent up to now is     1912.8 secs

     total energy              =   -7140.63007745 Ry
     estimated scf accuracy    <       0.53700966 Ry

     total magnetization       =     0.00    -0.01    -0.00 Bohr mag/cell
     absolute magnetization    =    10.78 Bohr mag/cell

     iteration #  2     ecut=    60.00 Ry     beta= 0.30
     Davidson diagonalization with overlap

---- Real-time Memory Report at c_bands before calling an iterative solver
           675 MiB given to the printing process from OS
             0 MiB allocation reported by mallinfo(arena+hblkhd)
        227664 MiB available memory on the node where the printing process lives
------------------
     ethr =  3.89E-04,  avg # of iterations =  1.5

     ================= HUBBARD OCCUPATIONS ================
     ------------------------ ATOM    1 ------------------------
     Tr[ns(  1)] (up, down, total) =   4.98342  0.34154  5.32496
     eigenvalues:
       0.021  0.021  0.022  0.138  0.139  0.994  0.994  0.999  0.999  0.999
     eigenvectors (columns):
      -0.001 -0.001  0.006  0.007 -0.003  0.001  0.001 -0.019 -0.940  0.342
       0.000 -0.000  0.000  0.000  0.000  0.000 -0.000 -0.000  0.000 -0.000
      -0.006  0.003  0.001  0.003  0.003 -0.542 -0.506 -0.443 -0.165 -0.476
      -0.001 -0.004  0.000  0.002  0.003  0.471  0.477 -0.512 -0.174 -0.507
       0.000  0.000 -0.000  0.000  0.000 -0.000  0.000 -0.000  0.000 -0.000
      -0.000  0.000 -0.000  0.000  0.000  0.000 -0.000 -0.000 -0.000 -0.000
       0.010  0.445  0.393  0.239 -0.768 -0.001  0.004 -0.000  0.005 -0.005
      -0.000 -0.000  0.000 -0.000 -0.000 -0.000  0.000  0.000  0.000 -0.000
      -0.000 -0.000  0.000  0.000  0.000 -0.000  0.000  0.000  0.000 -0.000
       0.012  0.554  0.583 -0.127  0.580  0.000  0.004 -0.000  0.001  0.003
     occupations, | n_(i1, i2)^(sigma1, sigma2) |:
       0.999  0.000  0.000  0.000  0.000  0.001  0.005  0.007  0.001  0.000
       0.000  0.996  0.000  0.000  0.002  0.007  0.001  0.000  0.004  0.004
       0.000  0.000  0.996  0.002  0.000  0.006  0.000  0.001  0.003  0.004
       0.000  0.000  0.002  0.996  0.000  0.001  0.003  0.004  0.000  0.000
       0.000  0.002  0.000  0.000  0.996  0.001  0.003  0.003  0.000  0.000
       0.001  0.007  0.006  0.001  0.001  0.021  0.000  0.000  0.000  0.000
       0.005  0.001  0.000  0.003  0.003  0.000  0.098  0.005  0.002  0.056
       0.007  0.000  0.001  0.004  0.003  0.000  0.005  0.097  0.055  0.002
       0.001  0.004  0.003  0.000  0.000  0.000  0.002  0.055  0.063  0.004
       0.000  0.004  0.004  0.000  0.000  0.000  0.056  0.002  0.004  0.063
     Atomic magnetic moment mx, my, mz =     0.000000   -0.003259    4.641876
     ------------------------ ATOM    2 ------------------------
     Tr[ns(  2)] (up, down, total) =   0.34338  4.98345  5.32682
     eigenvalues:
       0.021  0.021  0.022  0.139  0.140  0.994  0.994  0.999  0.999  0.999
     eigenvectors (columns):
       0.992  0.122 -0.026  0.002 -0.003  0.008 -0.000  0.007 -0.000  0.000
       0.000  0.000 -0.000 -0.000 -0.000  0.000  0.000 -0.000  0.000  0.000
       0.061 -0.431  0.403  0.443 -0.672 -0.000  0.004 -0.000  0.005  0.006
       0.083 -0.535  0.596 -0.282  0.522  0.001  0.004 -0.001  0.002 -0.003
       0.000  0.000 -0.000  0.000  0.000  0.000  0.000  0.000  0.000  0.000
      -0.000 -0.000  0.000  0.000  0.000  0.000 -0.000 -0.000  0.000  0.000
       0.007  0.006 -0.000 -0.001 -0.003 -0.528  0.518 -0.442  0.173 -0.477
       0.000  0.000  0.000 -0.000 -0.000  0.000  0.000  0.000  0.000 -0.000
       0.000 -0.000  0.000 -0.000 -0.000 -0.000 -0.000  0.000  0.000 -0.000
       0.000 -0.004 -0.001  0.000 -0.004  0.460 -0.491 -0.509  0.182 -0.505
     occupations, | n_(i1, i2)^(sigma1, sigma2) |:
       0.021  0.000  0.000  0.000  0.000  0.000  0.007  0.007  0.000  0.000
       0.000  0.098  0.005  0.002  0.056  0.006  0.000  0.000  0.003  0.003
       0.000  0.005  0.098  0.056  0.002  0.006  0.001  0.000  0.004  0.004
       0.000  0.002  0.056  0.063  0.004  0.001  0.004  0.003  0.001  0.001
       0.000  0.056  0.002  0.004  0.063  0.001  0.004  0.003  0.001  0.002
       0.000  0.006  0.006  0.001  0.001  0.999  0.000  0.000  0.000  0.000
       0.007  0.000  0.001  0.004  0.004  0.000  0.996  0.000  0.000  0.002
       0.007  0.000  0.000  0.003  0.003  0.000  0.000  0.996  0.002  0.000
       0.000  0.003  0.004  0.001  0.001  0.000  0.000  0.002  0.996  0.000
       0.000  0.003  0.004  0.001  0.002  0.000  0.002  0.000  0.000  0.996
     Atomic magnetic moment mx, my, mz =     0.000000   -0.001613   -4.640068

     Number of occupied Hubbard levels =   10.6518
 --- in v_hubbard ---
Hub. E (dc, noflip, flip, total)    6.7783   6.8725  -0.0002   0.0940
 -------

 ==============================================================================
     atom number    1 relative position :    0.0000   0.0000   0.0000
     charge :    13.598552  (integrated on a sphere of radius 0.045)
     magnetization :         -0.000000   -0.002586    4.584841
     magnetization/charge:   -0.000000   -0.000190    0.337157
     polar coord.: r, theta, phi [deg] :     4.584842    0.032311  -90.000000

 ==============================================================================

 ==============================================================================
     atom number    2 relative position :    0.0000   0.0000   1.4937
     charge :    13.599504  (integrated on a sphere of radius 0.045)
     magnetization :         -0.000000   -0.001074   -4.585007
     magnetization/charge:   -0.000000   -0.000079   -0.337145
     polar coord.: r, theta, phi [deg] :     4.585007  179.986576  -90.000000

 ==============================================================================

 ==============================================================================
     atom number    3 relative position :    0.0000   0.0000   0.6351
     charge :    12.665158  (integrated on a sphere of radius 0.046)
     magnetization :         -0.000000   -0.001652   -0.011586
     magnetization/charge:   -0.000000   -0.000130   -0.000915
     polar coord.: r, theta, phi [deg] :     0.011703  171.885961  -90.000000

 ==============================================================================

 ==============================================================================
     atom number    4 relative position :    0.0000   0.0000   2.1281
     charge :    12.662359  (integrated on a sphere of radius 0.046)
     magnetization :          0.000000    0.000966    0.011573
     magnetization/charge:    0.000000    0.000076    0.000914
     polar coord.: r, theta, phi [deg] :     0.011613    4.770096   90.000000

 ==============================================================================

 ==============================================================================
     atom number    5 relative position :    0.0000   0.0000   0.8587
     charge :    12.665011  (integrated on a sphere of radius 0.046)
     magnetization :         -0.000000    0.000023    0.010992
     magnetization/charge:   -0.000000    0.000002    0.000868
     polar coord.: r, theta, phi [deg] :     0.010992    0.118029   90.000000

 ==============================================================================

 ==============================================================================
     atom number    6 relative position :    0.0000   0.0000   2.3531
     charge :    12.663373  (integrated on a sphere of radius 0.046)
     magnetization :          0.000000    0.001742   -0.011570
     magnetization/charge:    0.000000    0.000138   -0.000914
     polar coord.: r, theta, phi [deg] :     0.011700  171.435909   90.000000

 ==============================================================================

 ==============================================================================
     atom number    7 relative position :    0.0000   0.0000   0.1992
     charge :     3.805853  (integrated on a sphere of radius 0.045)
     magnetization :          0.000000   -0.003300    0.016024
     magnetization/charge:    0.000000   -0.000867    0.004210
     polar coord.: r, theta, phi [deg] :     0.016360   11.635532  -90.000000

 ==============================================================================

 ==============================================================================
     atom number    8 relative position :    0.0000   0.0000   1.6929
     charge :     3.809887  (integrated on a sphere of radius 0.045)
     magnetization :         -0.000000   -0.001410   -0.015735
     magnetization/charge:   -0.000000   -0.000370   -0.004130
     polar coord.: r, theta, phi [deg] :     0.015798  174.879249  -90.000000

 ==============================================================================

 ==============================================================================
     atom number    9 relative position :    0.0000   0.0000   1.2945
     charge :     3.802942  (integrated on a sphere of radius 0.045)
     magnetization :          0.000000   -0.001080   -0.014835
     magnetization/charge:    0.000000   -0.000284   -0.003901
     polar coord.: r, theta, phi [deg] :     0.014875  175.835931  -90.000000

 ==============================================================================

 ==============================================================================
     atom number   10 relative position :    0.0000   0.0000   2.7883
     charge :     3.809717  (integrated on a sphere of radius 0.045)
     magnetization :         -0.000000   -0.001359    0.015363
     magnetization/charge:   -0.000000   -0.000357    0.004033
     polar coord.: r, theta, phi [deg] :     0.015423    5.055846  -90.000000

 ==============================================================================

 ==============================================================================
     atom number   11 relative position :    0.0000   0.0000   0.4392
     charge :     3.886685  (integrated on a sphere of radius 0.045)
     magnetization :         -0.000000   -0.003720   -0.020192
     magnetization/charge:   -0.000000   -0.000957   -0.005195
     polar coord.: r, theta, phi [deg] :     0.020532  169.560982  -90.000000

 ==============================================================================

 ==============================================================================
     atom number   12 relative position :    0.0000   0.0000   1.9330
     charge :     3.887872  (integrated on a sphere of radius 0.045)
     magnetization :         -0.000000   -0.002703    0.020709
     magnetization/charge:   -0.000000   -0.000695    0.005326
     polar coord.: r, theta, phi [deg] :     0.020884    7.437473  -90.000000

 ==============================================================================

 ==============================================================================
     atom number   13 relative position :    0.0000   0.0000   1.0545
     charge :     3.890664  (integrated on a sphere of radius 0.045)
     magnetization :          0.000000    0.000212    0.018352
     magnetization/charge:    0.000000    0.000055    0.004717
     polar coord.: r, theta, phi [deg] :     0.018354    0.662702   90.000000

 ==============================================================================

 ==============================================================================
     atom number   14 relative position :    0.0000   0.0000   2.5482
     charge :     3.888276  (integrated on a sphere of radius 0.045)
     magnetization :          0.000000   -0.000338   -0.018744
     magnetization/charge:    0.000000   -0.000087   -0.004821
     polar coord.: r, theta, phi [deg] :     0.018747  178.968016  -90.000000

 ==============================================================================

     total cpu time spent up to now is     2657.5 secs

     total energy              =   -7140.56347364 Ry
     estimated scf accuracy    <       0.39132127 Ry

     total magnetization       =     0.00    -0.01    -0.00 Bohr mag/cell
     absolute magnetization    =    10.65 Bohr mag/cell

     iteration #  3     ecut=    60.00 Ry     beta= 0.30
     Davidson diagonalization with overlap

---- Real-time Memory Report at c_bands before calling an iterative solver
           681 MiB given to the printing process from OS
             0 MiB allocation reported by mallinfo(arena+hblkhd)
        227557 MiB available memory on the node where the printing process lives
------------------
     ethr =  2.84E-04,  avg # of iterations =  2.4

     ================= HUBBARD OCCUPATIONS ================
     ------------------------ ATOM    1 ------------------------
     Tr[ns(  1)] (up, down, total) =   4.97710  0.30700  5.28411
     eigenvalues:
       0.018  0.018  0.019  0.125  0.126  0.991  0.992  0.998  0.998  0.998
     eigenvectors (columns):
      -0.000 -0.000  0.006  0.009 -0.000 -0.000 -0.000  0.015 -1.000  0.023
       0.000 -0.000  0.000  0.000  0.000 -0.000 -0.000  0.000 -0.000 -0.000
      -0.008  0.004  0.001  0.001  0.004  0.539 -0.523  0.456 -0.004 -0.478
      -0.000 -0.004  0.000  0.001  0.005 -0.459  0.475  0.536 -0.004 -0.526
       0.000  0.000 -0.000  0.000  0.000  0.000  0.000  0.000  0.000 -0.000
      -0.000  0.000 -0.000  0.000  0.000 -0.000 -0.000  0.000 -0.000 -0.000
       0.001  0.438  0.396  0.540 -0.600  0.001  0.005  0.000  0.007 -0.004
      -0.000 -0.000  0.000 -0.000 -0.000  0.000 -0.000 -0.000  0.000 -0.000
      -0.000 -0.000  0.000  0.000  0.000  0.000  0.000 -0.000  0.000 -0.000
       0.002  0.553  0.588 -0.359  0.469 -0.000  0.005  0.000  0.000  0.004
     occupations, | n_(i1, i2)^(sigma1, sigma2) |:
       0.998  0.000  0.000  0.000  0.000  0.000  0.007  0.007  0.001  0.001
       0.000  0.994  0.001  0.000  0.003  0.009  0.001  0.000  0.005  0.004
       0.000  0.001  0.994  0.003  0.000  0.008  0.000  0.001  0.004  0.004
       0.000  0.000  0.003  0.995  0.000  0.000  0.004  0.004  0.001  0.000
       0.000  0.003  0.000  0.000  0.995  0.000  0.004  0.004  0.000  0.000
       0.000  0.009  0.008  0.000  0.000  0.018  0.000  0.000  0.000  0.000
       0.007  0.001  0.000  0.004  0.004  0.000  0.089  0.003  0.002  0.051
       0.007  0.000  0.001  0.004  0.004  0.000  0.003  0.088  0.051  0.002
       0.001  0.005  0.004  0.001  0.000  0.000  0.002  0.051  0.056  0.004
       0.001  0.004  0.004  0.000  0.000  0.000  0.051  0.002  0.004  0.056
     Atomic magnetic moment mx, my, mz =     0.000000   -0.003272    4.670100
     ------------------------ ATOM    2 ------------------------
     Tr[ns(  2)] (up, down, total) =   0.30261  4.97682  5.27943
     eigenvalues:
       0.018  0.018  0.019  0.123  0.125  0.991  0.992  0.998  0.998  0.998
     eigenvectors (columns):
       1.000  0.001 -0.007 -0.001  0.001 -0.009  0.000 -0.008 -0.000  0.000
       0.000 -0.000  0.000  0.000  0.000 -0.000 -0.000  0.000 -0.000 -0.000
      -0.004  0.443 -0.391 -0.565  0.576  0.000 -0.005  0.000  0.008 -0.004
      -0.005  0.561 -0.581  0.378 -0.453 -0.000 -0.005  0.001  0.000  0.004
       0.000 -0.000  0.000 -0.000 -0.000 -0.000 -0.000 -0.000 -0.000  0.000
      -0.000  0.000 -0.000 -0.000 -0.000 -0.000  0.000  0.000 -0.000 -0.000
       0.009 -0.006 -0.000  0.000  0.004  0.540 -0.521  0.457 -0.006  0.477
      -0.000  0.000  0.000  0.000  0.000 -0.000 -0.000 -0.000  0.000  0.000
      -0.000 -0.000 -0.000  0.000  0.000  0.000  0.000 -0.000  0.000  0.000
      -0.000  0.004  0.001 -0.001  0.005 -0.461  0.474  0.537 -0.008  0.525
     occupations, | n_(i1, i2)^(sigma1, sigma2) |:
       0.018  0.000  0.000  0.000  0.000  0.000  0.008  0.008  0.000  0.000
       0.000  0.087  0.003  0.002  0.050  0.007  0.000  0.001  0.004  0.004
       0.000  0.003  0.087  0.050  0.002  0.007  0.001  0.000  0.004  0.004
       0.000  0.002  0.050  0.055  0.004  0.001  0.004  0.004  0.001  0.000
       0.000  0.050  0.002  0.004  0.055  0.001  0.005  0.004  0.000  0.001
       0.000  0.007  0.007  0.001  0.001  0.998  0.000  0.000  0.000  0.000
       0.008  0.000  0.001  0.004  0.005  0.000  0.994  0.001  0.000  0.003
       0.008  0.001  0.000  0.004  0.004  0.000  0.001  0.994  0.003  0.000
       0.000  0.004  0.004  0.001  0.000  0.000  0.000  0.003  0.995  0.000
       0.000  0.004  0.004  0.000  0.001  0.000  0.003  0.000  0.000  0.995
     Atomic magnetic moment mx, my, mz =    -0.000000   -0.001394   -4.674211

     Number of occupied Hubbard levels =   10.5635
 --- in v_hubbard ---
Hub. E (dc, noflip, flip, total)    6.7266   6.8184  -0.0002   0.0916
 -------

 ==============================================================================
     atom number    1 relative position :    0.0000   0.0000   0.0000
     charge :    13.587147  (integrated on a sphere of radius 0.045)
     magnetization :         -0.000000   -0.002833    4.599139
     magnetization/charge:   -0.000000   -0.000209    0.338492
     polar coord.: r, theta, phi [deg] :     4.599139    0.035294  -90.000000

 ==============================================================================

 ==============================================================================
     atom number    2 relative position :    0.0000   0.0000   1.4937
     charge :    13.587800  (integrated on a sphere of radius 0.045)
     magnetization :         -0.000000   -0.001237   -4.600224
     magnetization/charge:   -0.000000   -0.000091   -0.338555
     polar coord.: r, theta, phi [deg] :     4.600224  179.984594  -90.000000

 ==============================================================================

 ==============================================================================
     atom number    3 relative position :    0.0000   0.0000   0.6351
     charge :    12.636581  (integrated on a sphere of radius 0.046)
     magnetization :         -0.000000   -0.000858   -0.013578
     magnetization/charge:   -0.000000   -0.000068   -0.001075
     polar coord.: r, theta, phi [deg] :     0.013605  176.384557  -90.000000

 ==============================================================================

 ==============================================================================
     atom number    4 relative position :    0.0000   0.0000   2.1281
     charge :    12.633855  (integrated on a sphere of radius 0.046)
     magnetization :          0.000000    0.001368    0.013273
     magnetization/charge:    0.000000    0.000108    0.001051
     polar coord.: r, theta, phi [deg] :     0.013343    5.886430   90.000000

 ==============================================================================

 ==============================================================================
     atom number    5 relative position :    0.0000   0.0000   0.8587
     charge :    12.636864  (integrated on a sphere of radius 0.046)
     magnetization :         -0.000000    0.001284    0.012960
     magnetization/charge:   -0.000000    0.000102    0.001026
     polar coord.: r, theta, phi [deg] :     0.013024    5.659056   90.000000

 ==============================================================================

 ==============================================================================
     atom number    6 relative position :    0.0000   0.0000   2.3531
     charge :    12.634323  (integrated on a sphere of radius 0.046)
     magnetization :          0.000000    0.001216   -0.013716
     magnetization/charge:    0.000000    0.000096   -0.001086
     polar coord.: r, theta, phi [deg] :     0.013770  174.935083   90.000000

 ==============================================================================

 ==============================================================================
     atom number    7 relative position :    0.0000   0.0000   0.1992
     charge :     3.806880  (integrated on a sphere of radius 0.045)
     magnetization :          0.000000   -0.003188    0.020615
     magnetization/charge:    0.000000   -0.000838    0.005415
     polar coord.: r, theta, phi [deg] :     0.020860    8.791665  -90.000000

 ==============================================================================

 ==============================================================================
     atom number    8 relative position :    0.0000   0.0000   1.6929
     charge :     3.811891  (integrated on a sphere of radius 0.045)
     magnetization :          0.000000   -0.002040   -0.019198
     magnetization/charge:    0.000000   -0.000535   -0.005036
     polar coord.: r, theta, phi [deg] :     0.019306  173.934580  -90.000000

 ==============================================================================

 ==============================================================================
     atom number    9 relative position :    0.0000   0.0000   1.2945
     charge :     3.805586  (integrated on a sphere of radius 0.045)
     magnetization :          0.000000   -0.000466   -0.019370
     magnetization/charge:    0.000000   -0.000123   -0.005090
     polar coord.: r, theta, phi [deg] :     0.019376  178.620507  -90.000000

 ==============================================================================

 ==============================================================================
     atom number   10 relative position :    0.0000   0.0000   2.7883
     charge :     3.810994  (integrated on a sphere of radius 0.045)
     magnetization :          0.000000   -0.001827    0.019033
     magnetization/charge:    0.000000   -0.000479    0.004994
     polar coord.: r, theta, phi [deg] :     0.019121    5.483428  -90.000000

 ==============================================================================

 ==============================================================================
     atom number   11 relative position :    0.0000   0.0000   0.4392
     charge :     3.897806  (integrated on a sphere of radius 0.045)
     magnetization :         -0.000000   -0.005007   -0.008781
     magnetization/charge:   -0.000000   -0.001285   -0.002253
     polar coord.: r, theta, phi [deg] :     0.010108  150.308119  -90.000000

 ==============================================================================

 ==============================================================================
     atom number   12 relative position :    0.0000   0.0000   1.9330
     charge :     3.897228  (integrated on a sphere of radius 0.045)
     magnetization :         -0.000000   -0.001896    0.010869
     magnetization/charge:   -0.000000   -0.000486    0.002789
     polar coord.: r, theta, phi [deg] :     0.011033    9.893046  -90.000000

 ==============================================================================

 ==============================================================================
     atom number   13 relative position :    0.0000   0.0000   1.0545
     charge :     3.900263  (integrated on a sphere of radius 0.045)
     magnetization :          0.000000   -0.001495    0.008574
     magnetization/charge:    0.000000   -0.000383    0.002198
     polar coord.: r, theta, phi [deg] :     0.008704    9.893646  -90.000000

 ==============================================================================

 ==============================================================================
     atom number   14 relative position :    0.0000   0.0000   2.5482
     charge :     3.898594  (integrated on a sphere of radius 0.045)
     magnetization :         -0.000000    0.000362   -0.008086
     magnetization/charge:   -0.000000    0.000093   -0.002074
     polar coord.: r, theta, phi [deg] :     0.008094  177.440262   90.000000

 ==============================================================================

     total cpu time spent up to now is     4183.5 secs

     total energy              =   -7140.61290879 Ry
     estimated scf accuracy    <       0.07591137 Ry

     total magnetization       =    -0.00    -0.01     0.00 Bohr mag/cell
     absolute magnetization    =    11.02 Bohr mag/cell

     iteration #  4     ecut=    60.00 Ry     beta= 0.30
     Davidson diagonalization with overlap

---- Real-time Memory Report at c_bands before calling an iterative solver
           686 MiB given to the printing process from OS
             0 MiB allocation reported by mallinfo(arena+hblkhd)
        227438 MiB available memory on the node where the printing process lives
------------------
     c_bands:  1 eigenvalues not converged
     ethr =  5.50E-05,  avg # of iterations = 11.1

     ================= HUBBARD OCCUPATIONS ================
     ------------------------ ATOM    1 ------------------------
     Tr[ns(  1)] (up, down, total) =   4.97441  0.29831  5.27271
     eigenvalues:
       0.017  0.018  0.019  0.121  0.123  0.990  0.991  0.998  0.998  0.998
     eigenvectors (columns):
      -0.000 -0.000  0.007 -0.009 -0.000  0.000  0.000 -0.018 -1.000  0.008
      -0.000  0.000  0.000 -0.000 -0.000 -0.000  0.000  0.000 -0.000  0.000
      -0.009  0.005  0.000 -0.000 -0.004  0.537  0.531  0.456 -0.004  0.471
      -0.000 -0.005  0.000 -0.000 -0.005 -0.454 -0.474  0.540 -0.005  0.528
      -0.000  0.000 -0.000 -0.000 -0.000  0.000 -0.000  0.000  0.000  0.000
       0.000 -0.000  0.000  0.000  0.000 -0.000  0.000  0.000  0.000  0.000
       0.001  0.437  0.396 -0.576  0.567  0.001 -0.005  0.000  0.008  0.004
      -0.000 -0.000  0.000  0.000  0.000  0.000  0.000 -0.000  0.000  0.000
      -0.000 -0.000  0.000 -0.000 -0.000  0.000 -0.000 -0.000  0.000  0.000
       0.001  0.554  0.588  0.386 -0.445 -0.000 -0.005  0.000  0.000 -0.004
     occupations, | n_(i1, i2)^(sigma1, sigma2) |:
       0.998  0.000  0.000  0.000  0.000  0.000  0.007  0.007  0.001  0.001
       0.000  0.994  0.001  0.000  0.004  0.009  0.001  0.000  0.005  0.005
       0.000  0.001  0.994  0.004  0.000  0.008  0.000  0.000  0.004  0.005
       0.000  0.000  0.004  0.995  0.000  0.000  0.004  0.005  0.001  0.001
       0.000  0.004  0.000  0.000  0.995  0.000  0.004  0.004  0.001  0.000
       0.000  0.009  0.008  0.000  0.000  0.017  0.000  0.000  0.000  0.000
       0.007  0.001  0.000  0.004  0.004  0.000  0.086  0.003  0.002  0.049
       0.007  0.000  0.000  0.005  0.004  0.000  0.003  0.086  0.049  0.002
       0.001  0.005  0.004  0.001  0.001  0.000  0.002  0.049  0.054  0.004
       0.001  0.005  0.005  0.001  0.000  0.000  0.049  0.002  0.004  0.055
     Atomic magnetic moment mx, my, mz =     0.000000   -0.003279    4.676100
     ------------------------ ATOM    2 ------------------------
     Tr[ns(  2)] (up, down, total) =   0.29496  4.97404  5.26900
     eigenvalues:
       0.017  0.018  0.019  0.119  0.122  0.989  0.991  0.998  0.998  0.998
     eigenvectors (columns):
      -1.000 -0.011  0.008  0.000 -0.000  0.010 -0.000  0.008  0.000 -0.000
      -0.000  0.000 -0.000 -0.000 -0.000  0.000  0.000 -0.000 -0.000  0.000
       0.008 -0.446  0.385  0.585 -0.557 -0.000  0.005  0.000 -0.008  0.005
       0.011 -0.568  0.574 -0.394  0.439  0.000  0.005 -0.001 -0.000 -0.004
      -0.000  0.000 -0.000  0.000  0.000  0.000  0.000  0.000 -0.000 -0.000
       0.000 -0.000  0.000  0.000  0.000  0.000 -0.000 -0.000 -0.000  0.000
      -0.009  0.006  0.000 -0.000 -0.004 -0.541  0.527 -0.462  0.003 -0.465
       0.000  0.000 -0.000 -0.000 -0.000  0.000  0.000  0.000 -0.000 -0.000
      -0.000 -0.000  0.000 -0.000 -0.000 -0.000 -0.000  0.000 -0.000 -0.000
       0.000 -0.005 -0.001  0.001 -0.005  0.457 -0.470 -0.547  0.003 -0.521
     occupations, | n_(i1, i2)^(sigma1, sigma2) |:
       0.017  0.000  0.000  0.000  0.000  0.000  0.009  0.009  0.000  0.000
       0.000  0.085  0.003  0.002  0.049  0.007  0.000  0.001  0.004  0.004
       0.000  0.003  0.085  0.049  0.002  0.007  0.001  0.000  0.004  0.004
       0.000  0.002  0.049  0.054  0.004  0.001  0.005  0.005  0.001  0.000
       0.000  0.049  0.002  0.004  0.054  0.001  0.005  0.004  0.000  0.001
       0.000  0.007  0.007  0.001  0.001  0.998  0.000  0.000  0.000  0.000
       0.009  0.000  0.001  0.005  0.005  0.000  0.993  0.001  0.000  0.004
       0.009  0.001  0.000  0.005  0.004  0.000  0.001  0.993  0.004  0.000
       0.000  0.004  0.004  0.001  0.000  0.000  0.000  0.004  0.995  0.000
       0.000  0.004  0.004  0.000  0.001  0.000  0.004  0.000  0.000  0.995
     Atomic magnetic moment mx, my, mz =    -0.000000   -0.001349   -4.679081

     Number of occupied Hubbard levels =   10.5417
 --- in v_hubbard ---
Hub. E (dc, noflip, flip, total)    6.6052   6.6894  -0.0002   0.0841
 -------

 ==============================================================================
     atom number    1 relative position :    0.0000   0.0000   0.0000
     charge :    13.605431  (integrated on a sphere of radius 0.045)
     magnetization :         -0.000000   -0.002349    4.588486
     magnetization/charge:   -0.000000   -0.000173    0.337254
     polar coord.: r, theta, phi [deg] :     4.588486    0.029338  -90.000000

 ==============================================================================

 ==============================================================================
     atom number    2 relative position :    0.0000   0.0000   1.4937
     charge :    13.605375  (integrated on a sphere of radius 0.045)
     magnetization :          0.000000   -0.001119   -4.590759
     magnetization/charge:    0.000000   -0.000082   -0.337422
     polar coord.: r, theta, phi [deg] :     4.590759  179.986037  -90.000000

 ==============================================================================

 ==============================================================================
     atom number    3 relative position :    0.0000   0.0000   0.6351
     charge :    12.648337  (integrated on a sphere of radius 0.046)
     magnetization :          0.000000   -0.000282   -0.013934
     magnetization/charge:    0.000000   -0.000022   -0.001102
     polar coord.: r, theta, phi [deg] :     0.013937  178.841937  -90.000000

 ==============================================================================

 ==============================================================================
     atom number    4 relative position :    0.0000   0.0000   2.1281
     charge :    12.645754  (integrated on a sphere of radius 0.046)
     magnetization :          0.000000    0.000593    0.013013
     magnetization/charge:    0.000000    0.000047    0.001029
     polar coord.: r, theta, phi [deg] :     0.013027    2.608781   90.000000

 ==============================================================================

 ==============================================================================
     atom number    5 relative position :    0.0000   0.0000   0.8587
     charge :    12.648863  (integrated on a sphere of radius 0.046)
     magnetization :         -0.000000    0.000296    0.013385
     magnetization/charge:   -0.000000    0.000023    0.001058
     polar coord.: r, theta, phi [deg] :     0.013388    1.265575   90.000000

 ==============================================================================

 ==============================================================================
     atom number    6 relative position :    0.0000   0.0000   2.3531
     charge :    12.645345  (integrated on a sphere of radius 0.046)
     magnetization :          0.000000   -0.000318   -0.015307
     magnetization/charge:    0.000000   -0.000025   -0.001211
     polar coord.: r, theta, phi [deg] :     0.015311  178.808364  -90.000000

 ==============================================================================

 ==============================================================================
     atom number    7 relative position :    0.0000   0.0000   0.1992
     charge :     3.788422  (integrated on a sphere of radius 0.045)
     magnetization :          0.000000   -0.001829    0.022842
     magnetization/charge:    0.000000   -0.000483    0.006029
     polar coord.: r, theta, phi [deg] :     0.022915    4.578245  -90.000000

 ==============================================================================

 ==============================================================================
     atom number    8 relative position :    0.0000   0.0000   1.6929
     charge :     3.794875  (integrated on a sphere of radius 0.045)
     magnetization :         -0.000000    0.001915   -0.021759
     magnetization/charge:   -0.000000    0.000505   -0.005734
     polar coord.: r, theta, phi [deg] :     0.021844  174.971433   90.000000

 ==============================================================================

 ==============================================================================
     atom number    9 relative position :    0.0000   0.0000   1.2945
     charge :     3.789477  (integrated on a sphere of radius 0.045)
     magnetization :          0.000000   -0.001050   -0.021810
     magnetization/charge:    0.000000   -0.000277   -0.005755
     polar coord.: r, theta, phi [deg] :     0.021835  177.244668  -90.000000

[...]

 ==============================================================================
     atom number    8 relative position :    0.0000   0.0000   1.6929
     charge :     3.793237  (integrated on a sphere of radius 0.045)
     magnetization :         -0.000000   -0.090187   -0.024080
     magnetization/charge:   -0.000000   -0.023776   -0.006348
     polar coord.: r, theta, phi [deg] :     0.093346  104.949590  -90.000000

 ==============================================================================

 ==============================================================================
     atom number    9 relative position :    0.0000   0.0000   1.2945
     charge :     3.785996  (integrated on a sphere of radius 0.045)
     magnetization :          0.000000   -0.077089   -0.026286
     magnetization/charge:    0.000000   -0.020362   -0.006943
     polar coord.: r, theta, phi [deg] :     0.081448  108.828467  -90.000000

 ==============================================================================

 ==============================================================================
     atom number   10 relative position :    0.0000   0.0000   2.7883
     charge :     3.789873  (integrated on a sphere of radius 0.045)
     magnetization :         -0.000000   -0.015630    0.017018
     magnetization/charge:   -0.000000   -0.004124    0.004491
     polar coord.: r, theta, phi [deg] :     0.023107   42.565010  -90.000000

 ==============================================================================

 ==============================================================================
     atom number   11 relative position :    0.0000   0.0000   0.4392
     charge :     3.861494  (integrated on a sphere of radius 0.045)
     magnetization :          0.000000    0.029326    0.008478
     magnetization/charge:    0.000000    0.007594    0.002196
     polar coord.: r, theta, phi [deg] :     0.030527   73.875474   90.000000

 ==============================================================================

 ==============================================================================
     atom number   12 relative position :    0.0000   0.0000   1.9330
     charge :     3.861568  (integrated on a sphere of radius 0.045)
     magnetization :          0.000000   -0.010434   -0.008864
     magnetization/charge:    0.000000   -0.002702   -0.002295
     polar coord.: r, theta, phi [deg] :     0.013691  130.349545  -90.000000

 ==============================================================================

 ==============================================================================
     atom number   13 relative position :    0.0000   0.0000   1.0545
     charge :     3.863528  (integrated on a sphere of radius 0.045)
     magnetization :          0.000000    0.015141   -0.001650
     magnetization/charge:    0.000000    0.003919   -0.000427
     polar coord.: r, theta, phi [deg] :     0.015230   96.220089   90.000000

 ==============================================================================

 ==============================================================================
     atom number   14 relative position :    0.0000   0.0000   2.5482
     charge :     3.860714  (integrated on a sphere of radius 0.045)
     magnetization :         -0.000000    0.040744    0.007461
     magnetization/charge:   -0.000000    0.010553    0.001933
     polar coord.: r, theta, phi [deg] :     0.041421   79.622420   90.000000

 ==============================================================================

     total cpu time spent up to now is   344194.7 secs

     total energy              =   -7140.71776692 Ry
     estimated scf accuracy    <       0.01105265 Ry

     total magnetization       =    -0.00    -0.10     0.00 Bohr mag/cell
     absolute magnetization    =    15.81 Bohr mag/cell

     iteration #200     ecut=    60.00 Ry     beta= 0.30
     Davidson diagonalization with overlap

---- Real-time Memory Report at c_bands before calling an iterative solver
           815 MiB given to the printing process from OS
             0 MiB allocation reported by mallinfo(arena+hblkhd)
        216653 MiB available memory on the node where the printing process lives
------------------
     ethr =  3.92E-07,  avg # of iterations =  4.0

     ================= HUBBARD OCCUPATIONS ================
     ------------------------ ATOM    1 ------------------------
     Tr[ns(  1)] (up, down, total) =   4.97463  0.28758  5.26220
     eigenvalues:
       0.017  0.019  0.019  0.115  0.117  0.989  0.991  0.998  0.998  0.998
     eigenvectors (columns):
       0.001  0.000  0.006 -0.011 -0.000 -0.001  0.002  0.065 -0.998  0.007
      -0.000  0.000  0.000 -0.000  0.000  0.000 -0.000  0.000  0.000 -0.000
      -0.009  0.004  0.000 -0.001  0.007 -0.534 -0.530  0.458  0.026 -0.473
      -0.001 -0.004  0.001  0.001  0.005  0.456  0.475  0.539  0.032 -0.524
      -0.000  0.000 -0.000 -0.000  0.000 -0.000  0.000  0.000  0.000 -0.000
       0.000 -0.000  0.000  0.000 -0.000  0.000 -0.000  0.000  0.000 -0.000
       0.005  0.466  0.365 -0.578 -0.562 -0.001  0.005  0.000  0.009 -0.006
       0.000 -0.000  0.000  0.000 -0.000 -0.000  0.000 -0.000 -0.000 -0.000
       0.000 -0.000  0.000 -0.000  0.000  0.000  0.000 -0.000  0.000  0.000
       0.008  0.596  0.543  0.393  0.443  0.001  0.004  0.000 -0.001  0.006
     occupations, | n_(i1, i2)^(sigma1, sigma2) |:
       0.998  0.000  0.000  0.000  0.000  0.001  0.008  0.008  0.000  0.000
       0.000  0.994  0.001  0.000  0.004  0.009  0.001  0.001  0.004  0.004
       0.000  0.001  0.994  0.004  0.000  0.009  0.001  0.002  0.005  0.004
       0.000  0.000  0.004  0.995  0.000  0.001  0.005  0.004  0.001  0.000
       0.000  0.004  0.000  0.000  0.995  0.001  0.005  0.004  0.000  0.001
       0.001  0.009  0.009  0.001  0.001  0.017  0.000  0.000  0.000  0.000
       0.008  0.001  0.001  0.005  0.005  0.000  0.082  0.002  0.002  0.046
       0.008  0.001  0.002  0.004  0.004  0.000  0.002  0.082  0.046  0.002
       0.000  0.004  0.005  0.001  0.000  0.000  0.002  0.046  0.053  0.003
       0.000  0.004  0.004  0.000  0.001  0.000  0.046  0.002  0.003  0.053
     Atomic magnetic moment mx, my, mz =    -0.000000   -0.012520    4.687054
     ------------------------ ATOM    2 ------------------------
     Tr[ns(  2)] (up, down, total) =   0.28738  4.97452  5.26190
     eigenvalues:
       0.017  0.019  0.019  0.114  0.117  0.989  0.991  0.998  0.998  0.998
     eigenvectors (columns):
       0.998 -0.060  0.013 -0.002  0.001  0.011 -0.000 -0.009  0.000  0.000
       0.000  0.000  0.000  0.000 -0.000  0.000  0.000  0.000 -0.000 -0.000
      -0.032 -0.434  0.398 -0.582 -0.560  0.003  0.008 -0.000  0.009 -0.005
      -0.041 -0.554  0.586  0.396  0.437 -0.003  0.004  0.001  0.000  0.004
       0.000  0.000  0.000 -0.000  0.000  0.000  0.000 -0.000 -0.000  0.000
       0.000 -0.000 -0.000 -0.000  0.000  0.000 -0.000  0.000 -0.000 -0.000
       0.010  0.007  0.001  0.003 -0.008 -0.552  0.514  0.454  0.018  0.474
      -0.000  0.000 -0.000  0.000 -0.000  0.000  0.000 -0.000 -0.000  0.000
      -0.000 -0.000  0.000  0.000 -0.000 -0.000 -0.000 -0.000 -0.000  0.000
      -0.001 -0.004  0.000 -0.002 -0.002  0.468 -0.460  0.531  0.029  0.535
     occupations, | n_(i1, i2)^(sigma1, sigma2) |:
       0.017  0.000  0.000  0.000  0.000  0.001  0.010  0.009  0.000  0.001
       0.000  0.082  0.002  0.002  0.046  0.008  0.002  0.000  0.005  0.002
       0.000  0.002  0.082  0.046  0.002  0.008  0.000  0.003  0.008  0.004
       0.000  0.002  0.046  0.053  0.003  0.001  0.005  0.002  0.000  0.001
       0.000  0.046  0.002  0.003  0.053  0.001  0.008  0.006  0.001  0.002
       0.001  0.008  0.008  0.001  0.001  0.998  0.000  0.000  0.000  0.000
       0.010  0.002  0.000  0.005  0.008  0.000  0.993  0.001  0.000  0.004
       0.009  0.000  0.003  0.002  0.006  0.000  0.001  0.994  0.004  0.000
       0.000  0.005  0.008  0.000  0.001  0.000  0.000  0.004  0.995  0.000
       0.001  0.002  0.004  0.001  0.002  0.000  0.004  0.000  0.000  0.995
     Atomic magnetic moment mx, my, mz =    -0.000000   -0.012320   -4.687143

     Number of occupied Hubbard levels =   10.5241
 --- in v_hubbard ---
Hub. E (dc, noflip, flip, total)    6.5941   6.6779  -0.0003   0.0835
 -------

 ==============================================================================
     atom number    1 relative position :    0.0000   0.0000   0.0000
     charge :    13.593443  (integrated on a sphere of radius 0.045)
     magnetization :         -0.000000   -0.008958    4.610135
     magnetization/charge:   -0.000000   -0.000659    0.339144
     polar coord.: r, theta, phi [deg] :     4.610143    0.111332  -90.000000

 ==============================================================================

 ==============================================================================
     atom number    2 relative position :    0.0000   0.0000   1.4937
     charge :    13.591831  (integrated on a sphere of radius 0.045)
     magnetization :         -0.000000   -0.008404   -4.609309
     magnetization/charge:   -0.000000   -0.000618   -0.339123
     polar coord.: r, theta, phi [deg] :     4.609317  179.895540  -90.000000

 ==============================================================================

 ==============================================================================
     atom number    3 relative position :    0.0000   0.0000   0.6351
     charge :    12.619212  (integrated on a sphere of radius 0.046)
     magnetization :          0.000000    0.023569   -0.015591
     magnetization/charge:    0.000000    0.001868   -0.001235
     polar coord.: r, theta, phi [deg] :     0.028258  123.484529   90.000000

 ==============================================================================

 ==============================================================================
     atom number    4 relative position :    0.0000   0.0000   2.1281
     charge :    12.619295  (integrated on a sphere of radius 0.046)
     magnetization :         -0.000000    0.028162    0.015021
     magnetization/charge:   -0.000000    0.002232    0.001190
     polar coord.: r, theta, phi [deg] :     0.031918   61.925601   90.000000

 ==============================================================================

 ==============================================================================
     atom number    5 relative position :    0.0000   0.0000   0.8587
     charge :    12.621437  (integrated on a sphere of radius 0.046)
     magnetization :          0.000000    0.008198    0.020795
     magnetization/charge:    0.000000    0.000650    0.001648
     polar coord.: r, theta, phi [deg] :     0.022353   21.516269   90.000000

 ==============================================================================

 ==============================================================================
     atom number    6 relative position :    0.0000   0.0000   2.3531
     charge :    12.618513  (integrated on a sphere of radius 0.046)
     magnetization :          0.000000    0.056039   -0.021753
     magnetization/charge:    0.000000    0.004441   -0.001724
     polar coord.: r, theta, phi [deg] :     0.060113  111.215370   90.000000

 ==============================================================================

 ==============================================================================
     atom number    7 relative position :    0.0000   0.0000   0.1992
     charge :     3.786382  (integrated on a sphere of radius 0.045)
     magnetization :          0.000000   -0.029394    0.024704
     magnetization/charge:    0.000000   -0.007763    0.006524
     polar coord.: r, theta, phi [deg] :     0.038396   49.955337  -90.000000

 ==============================================================================

 ==============================================================================
     atom number    8 relative position :    0.0000   0.0000   1.6929
     charge :     3.793254  (integrated on a sphere of radius 0.045)
     magnetization :         -0.000000   -0.090035   -0.024126
     magnetization/charge:   -0.000000   -0.023736   -0.006360
     polar coord.: r, theta, phi [deg] :     0.093212  105.000905  -90.000000

 ==============================================================================

 ==============================================================================
     atom number    9 relative position :    0.0000   0.0000   1.2945
     charge :     3.786009  (integrated on a sphere of radius 0.045)
     magnetization :         -0.000000   -0.076042   -0.026287
     magnetization/charge:   -0.000000   -0.020085   -0.006943
     polar coord.: r, theta, phi [deg] :     0.080458  109.069886  -90.000000

 ==============================================================================

 ==============================================================================
     atom number   10 relative position :    0.0000   0.0000   2.7883
     charge :     3.789874  (integrated on a sphere of radius 0.045)
     magnetization :          0.000000   -0.014957    0.017168
     magnetization/charge:    0.000000   -0.003947    0.004530
     polar coord.: r, theta, phi [deg] :     0.022769   41.064351  -90.000000

 ==============================================================================

 ==============================================================================
     atom number   11 relative position :    0.0000   0.0000   0.4392
     charge :     3.861544  (integrated on a sphere of radius 0.045)
     magnetization :          0.000000    0.029057    0.008508
     magnetization/charge:    0.000000    0.007525    0.002203
     polar coord.: r, theta, phi [deg] :     0.030277   73.679095   90.000000

 ==============================================================================

 ==============================================================================
     atom number   12 relative position :    0.0000   0.0000   1.9330
     charge :     3.861600  (integrated on a sphere of radius 0.045)
     magnetization :          0.000000   -0.010148   -0.008878
     magnetization/charge:    0.000000   -0.002628   -0.002299
     polar coord.: r, theta, phi [deg] :     0.013483  131.180296  -90.000000

 ==============================================================================

 ==============================================================================
     atom number   13 relative position :    0.0000   0.0000   1.0545
     charge :     3.863537  (integrated on a sphere of radius 0.045)
     magnetization :          0.000000    0.015008   -0.001704
     magnetization/charge:    0.000000    0.003884   -0.000441
     polar coord.: r, theta, phi [deg] :     0.015104   96.477601   90.000000

 ==============================================================================

 ==============================================================================
     atom number   14 relative position :    0.0000   0.0000   2.5482
     charge :     3.860739  (integrated on a sphere of radius 0.045)
     magnetization :         -0.000000    0.040509    0.007476
     magnetization/charge:   -0.000000    0.010493    0.001936
     polar coord.: r, theta, phi [deg] :     0.041194   79.543753   90.000000

 ==============================================================================

     total cpu time spent up to now is   345366.2 secs

     total energy              =   -7140.72468168 Ry
     estimated scf accuracy    <       0.00820890 Ry

     total magnetization       =    -0.00    -0.10     0.00 Bohr mag/cell
     absolute magnetization    =    15.81 Bohr mag/cell

     End of self-consistent calculation

     convergence NOT achieved after 200 iterations: stopping

     Writing config to output data dir ./tmp/MnBi2Te4.save/
 
     init_run     :    262.56s CPU    266.39s WALL (       1 calls)
     electrons    : 337860.85s CPU 345103.48s WALL (       1 calls)

     Called by init_run:
     wfcinit      :    258.82s CPU    261.94s WALL (       1 calls)
     wfcinit:atom :      0.02s CPU      0.02s WALL (      36 calls)
     wfcinit:wfcr :    255.00s CPU    257.72s WALL (      36 calls)
     potinit      :      1.88s CPU      2.15s WALL (       1 calls)
     hinit0       :      0.76s CPU      1.02s WALL (       1 calls)

     Called by electrons:
     c_bands      : 285961.85s CPU 292063.46s WALL (     201 calls)
     sum_band     :  50508.23s CPU  51551.94s WALL (     201 calls)
     v_of_rho     :    256.38s CPU    289.00s WALL (     201 calls)
     v_h          :     13.73s CPU     15.19s WALL (     201 calls)
     v_xc         :    242.59s CPU    273.69s WALL (     201 calls)
     newd         :    198.03s CPU    214.19s WALL (     201 calls)
     PAW_pot      :    138.59s CPU    148.77s WALL (     201 calls)
     mix_rho      :    687.10s CPU    717.15s WALL (     201 calls)
     energy_dftd3 :      0.05s CPU      0.05s WALL (       1 calls)

     Called by c_bands:
     init_us_2    :     16.16s CPU     16.84s WALL (   14544 calls)
     init_us_2:cp :     16.08s CPU     16.78s WALL (   14544 calls)
     cegterg      : 285571.62s CPU 291662.46s WALL (    7236 calls)

     Called by sum_band:
     sum_band:wei :      1.09s CPU      1.11s WALL (     201 calls)
     sum_band:loo :  49753.73s CPU  50757.17s WALL (     201 calls)
     sum_band:buf :      4.63s CPU      5.31s WALL (    7236 calls)
     sum_band:ini :      8.04s CPU      8.28s WALL (    7236 calls)
     sum_band:cal :    707.61s CPU    787.51s WALL (    7236 calls)
     sum_band:bec :    105.68s CPU    107.88s WALL (    7236 calls)
     addusdens    :    263.35s CPU    284.00s WALL (     201 calls)
                                        0.00s GPU  (     201 calls)
     addusd:skk   :      0.14s CPU      0.14s WALL (     804 calls)
                                        0.00s GPU  (     804 calls)

     Called by *egterg:
     cdiaghg      :   1046.60s CPU   1091.20s WALL (   35104 calls)
     cegterg:over :   1712.02s CPU   1828.64s WALL (   27904 calls)
     cegterg:upda :   1084.24s CPU   1125.59s WALL (   27904 calls)
     cegterg:last :   1490.69s CPU   1564.76s WALL (   18326 calls)
     cdiaghg:chol :    246.94s CPU    252.28s WALL (   35104 calls)
     cdiaghg:inve :     16.14s CPU     16.78s WALL (   35104 calls)
     cdiaghg:para :    170.85s CPU    188.11s WALL (   70208 calls)
     h_psi        : 278919.13s CPU 284683.97s WALL (   35176 calls)
     s_psi        :    457.61s CPU    465.91s WALL (   35212 calls)
     g_psi        :      5.16s CPU      5.24s WALL (   27904 calls)

     Called by h_psi:
     h_psi:calbec :   2319.84s CPU   2600.83s WALL (   35176 calls)
     vloc_psi     : 275251.57s CPU 280677.55s WALL (   35176 calls)
     add_vuspsi   :    429.68s CPU    439.88s WALL (   35176 calls)
     vhpsi        :    903.05s CPU    949.75s WALL (   35176 calls)

     General routines
     calbec       :   3027.86s CPU   3389.10s WALL (   42448 calls)
     fft          :    191.31s CPU    216.94s WALL (    7435 calls)
     ffts         :    102.70s CPU    116.65s WALL (    7160 calls)
     fftw         : 244264.34s CPU 249751.56s WALL (16942840 calls)
     interpolate  :     37.45s CPU     42.66s WALL (     804 calls)
     davcio       :      0.00s CPU      0.38s WALL (      90 calls)
 
     Parallel routines

     Hubbard U routines
     new_ns_nc    :    193.37s CPU    203.62s WALL (     201 calls)
     vhpsi        :    903.05s CPU    949.75s WALL (   35176 calls)

     PAW routines
     PAW_pot      :    138.59s CPU    148.77s WALL (     201 calls)
     PAW_symme    :     14.21s CPU     14.98s WALL (     402 calls)
 
     PWSCF        :   3d21h55m CPU   3d23h56m WALL

 
   This run was terminated on:  18:52:35  17Dec2025            

=------------------------------------------------------------------------------=
   JOB DONE.
=------------------------------------------------------------------------------=
