
     Program PWSCF v.7.2 starts on 15Jun2025 at  6:37:53 

     This program is part of the open-source Quantum ESPRESSO suite
     for quantum simulation of materials; please cite
         "P. Giannozzi et al., J. Phys.:Condens. Matter 21 395502 (2009);
         "P. Giannozzi et al., J. Phys.:Condens. Matter 29 465901 (2017);
         "P. Giannozzi et al., J. Chem. Phys. 152 154105 (2020);
          URL http://www.quantum-espresso.org", 
     in publications or presentations arising from this work. More details at
     http://www.quantum-espresso.org/quote

     Parallel version (MPI), running on    64 processors

     MPI processes distributed on     1 nodes
     230585 MiB available memory on the printing compute node when the environment starts
 
     Reading input from MnBi2Te4.scf.in

     Current dimensions of program PWSCF are:
     Max number of different atomic species (ntypx) = 10
     Max number of k-points (npk) =  40000
     Max angular momentum in pseudopotentials (lmaxx) =  4
     file Mn.pbe-spn-kjpaw_psl.0.3.1.UPF: wavefunction(s)  3P 3D renormalized
     file Mn.pbe-spn-kjpaw_psl.0.3.1.UPF: wavefunction(s)  3P 3D renormalized
     file Bi.pbe-dn-kjpaw_psl.1.0.0.UPF: wavefunction(s)  6P 5D renormalized
     file Te.pbe-n-kjpaw_psl.1.0.0.UPF: wavefunction(s)  5S 5P renormalized
     Message from routine setup:
     using ibrav=0 with symmetry is DISCOURAGED, use correct ibrav instead
 
     R & G space division:  proc/nbgrp/npool/nimage =      64
     Subspace diagonalization in iterative solution of the eigenvalue problem:
     one sub-group per band group will be used
     scalapack distributed-memory algorithm (size of sub-group:  2*  2 procs)

 
     Parallelization info
     --------------------
     sticks:   dense  smooth     PW     G-vecs:    dense   smooth      PW
     Min         126     126     36                 2936     2936     465
     Max         127     127     37                 2938     2938     467
     Sum        8079    8079   2353               187971   187971   29827
 
     Using Slab Decomposition
 


     bravais-lattice index     =            0
     lattice parameter (alat)  =      51.7756  a.u.
     unit-cell volume          =    2994.5593 (a.u.)^3
     number of atoms/cell      =           14
     number of atomic types    =            4
     number of electrons       =       138.00
     number of Kohn-Sham states=          200
     kinetic-energy cutoff     =      60.0000  Ry
     charge density cutoff     =     240.0000  Ry
     scf convergence threshold =      1.0E-07
     mixing beta               =       0.4000
     number of iterations used =            8  plain     mixing
     Exchange-correlation= SLA  PW   PBX  PBC
                           (   1   4   3   4   0   0   0)

     celldm(1)=  51.775623  celldm(2)=   0.000000  celldm(3)=   0.000000
     celldm(4)=   0.000000  celldm(5)=   0.000000  celldm(6)=   0.000000

     crystal axes: (cart. coord. in units of alat)
               a(1) = (   0.157674   0.000000   0.987491 )  
               a(2) = (   0.078341   0.136835   0.987491 )  
               a(3) = (   0.000000   0.000000   1.000000 )  

     reciprocal axes: (cart. coord. in units 2 pi/alat)
               b(1) = (  6.342202 -3.631040  0.000000 )  
               b(2) = (  0.000000  7.308076  0.000000 )  
               b(3) = ( -6.262868 -3.631040  1.000000 )  


     PseudoPot. # 1 for Mn read from file:
     ./Mn.pbe-spn-kjpaw_psl.0.3.1.UPF
     MD5 check sum: 872d0d815bb0ce6e24cff79ea4d0ae31
     Pseudo is Projector augmented-wave + core cor, Zval = 15.0
     Generated using &quot;atomic&quot; code by A. Dal Corso  v.6.2.2
     Shape of augmentation charge: PSQ
     Using radial grid of 1187 points,  6 beta functions with: 
                l(1) =   0
                l(2) =   0
                l(3) =   1
                l(4) =   1
                l(5) =   2
                l(6) =   2
     Q(r) pseudized with 0 coefficients 


     PseudoPot. # 2 for Mn read from file:
     ./Mn.pbe-spn-kjpaw_psl.0.3.1.UPF
     MD5 check sum: 872d0d815bb0ce6e24cff79ea4d0ae31
     Pseudo is Projector augmented-wave + core cor, Zval = 15.0
     Generated using &quot;atomic&quot; code by A. Dal Corso  v.6.2.2
     Shape of augmentation charge: PSQ
     Using radial grid of 1187 points,  6 beta functions with: 
                l(1) =   0
                l(2) =   0
                l(3) =   1
                l(4) =   1
                l(5) =   2
                l(6) =   2
     Q(r) pseudized with 0 coefficients 


     PseudoPot. # 3 for Bi read from file:
     ./Bi.pbe-dn-kjpaw_psl.1.0.0.UPF
     MD5 check sum: 29baffecec4108f41a587bcf9a453472
     Pseudo is Projector augmented-wave + core cor, Zval = 15.0
     Generated using &quot;atomic&quot; code by A. Dal Corso  v.6.2.2
     Shape of augmentation charge: PSQ
     Using radial grid of 1283 points,  6 beta functions with: 
                l(1) =   0
                l(2) =   0
                l(3) =   1
                l(4) =   1
                l(5) =   2
                l(6) =   2
     Q(r) pseudized with 0 coefficients 


     PseudoPot. # 4 for Te read from file:
     ./Te.pbe-n-kjpaw_psl.1.0.0.UPF
     MD5 check sum: 960f80ef2db6fd2ef753b89a550c1479
     Pseudo is Projector augmented-wave + core cor, Zval =  6.0
     Generated using &quot;atomic&quot; code by A. Dal Corso  v.6.3
     Shape of augmentation charge: PSQ
     Using radial grid of 1245 points,  6 beta functions with: 
                l(1) =   0
                l(2) =   0
                l(3) =   1
                l(4) =   1
                l(5) =   2
                l(6) =   2
     Q(r) pseudized with 0 coefficients 


     atomic species   valence    mass     pseudopotential
        Mn1           15.00    54.93800     Mn( 1.00)
        Mn2           15.00    54.93800     Mn( 1.00)
        Bi            15.00   208.98000     Bi( 1.00)
        Te             6.00   127.60300     Te( 1.00)

     Starting magnetic structure 
     atomic species   magnetization
        Mn1          0.333
        Mn2         -0.333
        Bi           0.000
        Te           0.000

      2 Sym. Ops., with inversion, found


                                    s                        frac. trans.

      isym =  1     identity                                     

 cryst.   s( 1) = (     1          0          0      )
                  (     0          1          0      )
                  (     0          0          1      )

 cart.    s( 1) = (  1.0000000  0.0000000  0.0000000 )
                  (  0.0000000  1.0000000  0.0000000 )
                  (  0.0000000 -0.0000000  1.0000000 )


      isym =  2     inversion                                    

 cryst.   s( 2) = (    -1          0          0      )
                  (     0         -1          0      )
                  (     0          0         -1      )

 cart.    s( 2) = ( -1.0000000  0.0000000  0.0000000 )
                  (  0.0000000 -1.0000000  0.0000000 )
                  (  0.0000000  0.0000000 -1.0000000 )


   Cartesian axes

     site n.     atom                  positions (alat units)
         1           Mn1 tau(   1) = (   0.0000000   0.0000000   0.0000000  )
         2           Mn2 tau(   2) = (   0.1180074   0.0684175   1.4874912  )
         3           Bi  tau(   3) = (   0.0501413   0.0290706   0.6320350  )
         4           Bi  tau(   4) = (   0.1681487   0.0974880   2.1195262  )
         5           Bi  tau(   5) = (   0.0678660   0.0393469   0.8554562  )
         6           Bi  tau(   6) = (   0.1858734   0.1077643   2.3429474  )
         7           Te  tau(   7) = (   0.0157375   0.0091242   0.1983718  )
         8           Te  tau(   8) = (   0.1337448   0.0775416   1.6858631  )
         9           Te  tau(   9) = (   0.1022699   0.0592933   1.2891194  )
        10           Te  tau(  10) = (   0.2202773   0.1277108   2.7766106  )
        11           Te  tau(  11) = (   0.0347012   0.0201188   0.4374117  )
        12           Te  tau(  12) = (   0.1527086   0.0885363   1.9249029  )
        13           Te  tau(  13) = (   0.0833061   0.0482986   1.0500796  )
        14           Te  tau(  14) = (   0.2013135   0.1167161   2.5375708  )

   Crystallographic axes

     site n.     atom                  positions (cryst. coord.)
         1           Mn1 tau(   1) = (  0.0000000  0.0000000  0.0000000  )
         2           Mn2 tau(   2) = (  0.5000000  0.5000000  0.5000000  )
         3           Bi  tau(   3) = (  0.2124500  0.2124500  0.2124500  )
         4           Bi  tau(   4) = (  0.7124500  0.7124500  0.7124500  )
         5           Bi  tau(   5) = (  0.2875500  0.2875500  0.2875500  )
         6           Bi  tau(   6) = (  0.7875500  0.7875500  0.7875500  )
         7           Te  tau(   7) = (  0.0666800  0.0666800  0.0666800  )
         8           Te  tau(   8) = (  0.5666800  0.5666800  0.5666800  )
         9           Te  tau(   9) = (  0.4333200  0.4333200  0.4333200  )
        10           Te  tau(  10) = (  0.9333200  0.9333200  0.9333200  )
        11           Te  tau(  11) = (  0.1470300  0.1470300  0.1470300  )
        12           Te  tau(  12) = (  0.6470300  0.6470300  0.6470300  )
        13           Te  tau(  13) = (  0.3529700  0.3529700  0.3529700  )
        14           Te  tau(  14) = (  0.8529700  0.8529700  0.8529700  )

     number of k points=    36  Marzari-Vanderbilt smearing, width (Ry)=  0.0200
                       cart. coord. in units 2pi/alat
        k(    1) = (   0.0000000   0.0000000   0.0000000), wk =   0.0156250
        k(    2) = (  -1.5657171  -0.9077601   0.2500000), wk =   0.0312500
        k(    3) = (   3.1314342   1.8155202  -0.5000000), wk =   0.0156250
        k(    4) = (   0.0000000   1.8270190   0.0000000), wk =   0.0312500
        k(    5) = (  -1.5657171   0.9192589   0.2500000), wk =   0.0312500
        k(    6) = (   3.1314342   3.6425392  -0.5000000), wk =   0.0312500
        k(    7) = (   1.5657171   2.7347791  -0.2500000), wk =   0.0312500
        k(    8) = (   0.0000000  -3.6540380   0.0000000), wk =   0.0156250
        k(    9) = (  -1.5657171  -4.5617981   0.2500000), wk =   0.0312500
        k(   10) = (   3.1314342  -1.8385178  -0.5000000), wk =   0.0156250
        k(   11) = (   1.5855504  -0.9077601   0.0000000), wk =   0.0312500
        k(   12) = (   0.0198333  -1.8155202   0.2500000), wk =   0.0312500
        k(   13) = (   4.7169845   0.9077601  -0.5000000), wk =   0.0312500
        k(   14) = (   3.1512675   0.0000000  -0.2500000), wk =   0.0312500
        k(   15) = (   1.5855504   0.9192589   0.0000000), wk =   0.0312500
        k(   16) = (   0.0198333   0.0114988   0.2500000), wk =   0.0312500
        k(   17) = (   4.7169845   2.7347791  -0.5000000), wk =   0.0312500
        k(   18) = (   3.1512675   1.8270190  -0.2500000), wk =   0.0312500
        k(   19) = (   1.5855504  -4.5617981   0.0000000), wk =   0.0312500
        k(   20) = (   0.0198333  -5.4695582   0.2500000), wk =   0.0312500
        k(   21) = (   4.7169845  -2.7462779  -0.5000000), wk =   0.0312500
        k(   22) = (   3.1512675  -3.6540380  -0.2500000), wk =   0.0312500
        k(   23) = (   1.5855504  -2.7347791   0.0000000), wk =   0.0312500
        k(   24) = (   0.0198333  -3.6425392   0.2500000), wk =   0.0312500
        k(   25) = (   4.7169845  -0.9192589  -0.5000000), wk =   0.0312500
        k(   26) = (   3.1512675  -1.8270190  -0.2500000), wk =   0.0312500
        k(   27) = (  -3.1711008   1.8155202   0.0000000), wk =   0.0156250
        k(   28) = (  -4.7368178   0.9077601   0.2500000), wk =   0.0312500
        k(   29) = (  -0.0396666   3.6310404  -0.5000000), wk =   0.0156250
        k(   30) = (  -3.1711008   3.6425392   0.0000000), wk =   0.0312500
        k(   31) = (  -4.7368178   2.7347791   0.2500000), wk =   0.0312500
        k(   32) = (  -0.0396666   5.4580594  -0.5000000), wk =   0.0312500
        k(   33) = (  -1.6053837   4.5502993  -0.2500000), wk =   0.0312500
        k(   34) = (  -3.1711008  -1.8385178   0.0000000), wk =   0.0156250
        k(   35) = (  -4.7368178  -2.7462779   0.2500000), wk =   0.0312500
        k(   36) = (  -0.0396666  -0.0229976  -0.5000000), wk =   0.0156250

                       cryst. coord.
        k(    1) = (   0.0000000   0.0000000   0.0000000), wk =   0.0156250
        k(    2) = (   0.0000000  -0.0000000   0.2500000), wk =   0.0312500
        k(    3) = (   0.0000000   0.0000000  -0.5000000), wk =   0.0156250
        k(    4) = (   0.0000000   0.2500000   0.0000000), wk =   0.0312500
        k(    5) = (   0.0000000   0.2500000   0.2500000), wk =   0.0312500
        k(    6) = (   0.0000000   0.2500000  -0.5000000), wk =   0.0312500
        k(    7) = (   0.0000000   0.2500000  -0.2500000), wk =   0.0312500
        k(    8) = (   0.0000000  -0.5000000   0.0000000), wk =   0.0156250
        k(    9) = (   0.0000000  -0.5000000   0.2500000), wk =   0.0312500
        k(   10) = (   0.0000000  -0.5000000  -0.5000000), wk =   0.0156250
        k(   11) = (   0.2500000   0.0000000   0.0000000), wk =   0.0312500
        k(   12) = (   0.2500000  -0.0000000   0.2500000), wk =   0.0312500
        k(   13) = (   0.2500000   0.0000000  -0.5000000), wk =   0.0312500
        k(   14) = (   0.2500000   0.0000000  -0.2500000), wk =   0.0312500
        k(   15) = (   0.2500000   0.2500000   0.0000000), wk =   0.0312500
        k(   16) = (   0.2500000   0.2500000   0.2500000), wk =   0.0312500
        k(   17) = (   0.2500000   0.2500000  -0.5000000), wk =   0.0312500
        k(   18) = (   0.2500000   0.2500000  -0.2500000), wk =   0.0312500
        k(   19) = (   0.2500000  -0.5000000   0.0000000), wk =   0.0312500
        k(   20) = (   0.2500000  -0.5000000   0.2500000), wk =   0.0312500
        k(   21) = (   0.2500000  -0.5000000  -0.5000000), wk =   0.0312500
        k(   22) = (   0.2500000  -0.5000000  -0.2500000), wk =   0.0312500
        k(   23) = (   0.2500000  -0.2500000   0.0000000), wk =   0.0312500
        k(   24) = (   0.2500000  -0.2500000   0.2500000), wk =   0.0312500
        k(   25) = (   0.2500000  -0.2500000  -0.5000000), wk =   0.0312500
        k(   26) = (   0.2500000  -0.2500000  -0.2500000), wk =   0.0312500
        k(   27) = (  -0.5000000  -0.0000000   0.0000000), wk =   0.0156250
        k(   28) = (  -0.5000000   0.0000000   0.2500000), wk =   0.0312500
        k(   29) = (  -0.5000000   0.0000000  -0.5000000), wk =   0.0156250
        k(   30) = (  -0.5000000   0.2500000   0.0000000), wk =   0.0312500
        k(   31) = (  -0.5000000   0.2500000   0.2500000), wk =   0.0312500
        k(   32) = (  -0.5000000   0.2500000  -0.5000000), wk =   0.0312500
        k(   33) = (  -0.5000000   0.2500000  -0.2500000), wk =   0.0312500
        k(   34) = (  -0.5000000  -0.5000000   0.0000000), wk =   0.0156250
        k(   35) = (  -0.5000000  -0.5000000   0.2500000), wk =   0.0312500
        k(   36) = (  -0.5000000  -0.5000000  -0.5000000), wk =   0.0156250

     Dense  grid:   187971 G-vectors     FFT dimensions: ( 256, 256, 256)

     Dynamical RAM for                 wfc:       1.12 MB

     Dynamical RAM for     wfc (w. buffer):      81.76 MB

     Dynamical RAM for           str. fact:       0.18 MB

     Dynamical RAM for           local pot:       0.00 MB

     Dynamical RAM for          nlocal pot:       1.41 MB

     Dynamical RAM for                qrad:       4.98 MB

     Dynamical RAM for          rho,v,vnew:      12.27 MB

     Dynamical RAM for               rhoin:       4.09 MB

     Dynamical RAM for            rho*nmix:       1.43 MB

     Dynamical RAM for           G-vectors:       0.19 MB

     Dynamical RAM for          h,s,v(r/c):       1.83 MB

     Dynamical RAM for          <psi|beta>:       0.77 MB

     Dynamical RAM for                 psi:       2.24 MB

     Dynamical RAM for                hpsi:       2.24 MB

     Dynamical RAM for                spsi:       2.24 MB

     Dynamical RAM for      wfcinit/wfcrot:       3.16 MB

     Dynamical RAM for           addusdens:       8.74 MB

     Estimated static dynamical RAM per process >     117.10 MB

     Estimated max dynamical RAM per process >     127.85 MB

     Estimated total dynamical RAM >       7.99 GB

     Check: negative core charge=   -0.000015
     Generating pointlists ...
     new r_m :   0.0448 (alat units)  2.3181 (a.u.) for type    1
     new r_m :   0.0448 (alat units)  2.3181 (a.u.) for type    2
     new r_m :   0.0456 (alat units)  2.3625 (a.u.) for type    3
     new r_m :   0.0448 (alat units)  2.3181 (a.u.) for type    4

     Initial potential from superposition of free atoms

     starting charge     137.9940, renormalised to     138.0000
     Starting wfcs are   88 randomized atomic wfcs +  112 random wfcs
     Checking if some PAW data can be deallocated... 
       PAW data deallocated on   59 nodes for type:  1
       PAW data deallocated on   59 nodes for type:  2
       PAW data deallocated on   44 nodes for type:  3
       PAW data deallocated on   30 nodes for type:  4

     total cpu time spent up to now is      104.8 secs

     Self-consistent Calculation

     iteration #  1     ecut=    60.00 Ry     beta= 0.40
     Davidson diagonalization with overlap

---- Real-time Memory Report at c_bands before calling an iterative solver
           228 MiB given to the printing process from OS
             0 MiB allocation reported by mallinfo(arena+hblkhd)
        220780 MiB available memory on the node where the printing process lives
------------------
     ethr =  1.00E-02,  avg # of iterations =  7.4

     Threshold (ethr) on eigenvalues was too large:
     Diagonalizing with lowered threshold

     Davidson diagonalization with overlap

---- Real-time Memory Report at c_bands before calling an iterative solver
           301 MiB given to the printing process from OS
             0 MiB allocation reported by mallinfo(arena+hblkhd)
        218884 MiB available memory on the node where the printing process lives
------------------
     ethr =  6.59E-04,  avg # of iterations =  1.4

     total cpu time spent up to now is     1143.0 secs

     total energy              =   -7099.13697237 Ry
     estimated scf accuracy    <       0.91161649 Ry

     total magnetization       =     0.00 Bohr mag/cell
     absolute magnetization    =     9.96 Bohr mag/cell

     iteration #  2     ecut=    60.00 Ry     beta= 0.40
     Davidson diagonalization with overlap

---- Real-time Memory Report at c_bands before calling an iterative solver
           322 MiB given to the printing process from OS
             0 MiB allocation reported by mallinfo(arena+hblkhd)
        216651 MiB available memory on the node where the printing process lives
------------------
     ethr =  6.61E-04,  avg # of iterations =  4.7

     total cpu time spent up to now is     1446.9 secs

     total energy              =   -7097.32971838 Ry
     estimated scf accuracy    <      32.90972279 Ry

     total magnetization       =     0.47 Bohr mag/cell
     absolute magnetization    =     6.13 Bohr mag/cell

     iteration #  3     ecut=    60.00 Ry     beta= 0.40
     Davidson diagonalization with overlap

---- Real-time Memory Report at c_bands before calling an iterative solver
           330 MiB given to the printing process from OS
             0 MiB allocation reported by mallinfo(arena+hblkhd)
        216484 MiB available memory on the node where the printing process lives
------------------
     ethr =  6.61E-04,  avg # of iterations =  3.1

     total cpu time spent up to now is     2379.4 secs

     total energy              =   -7099.41568166 Ry
     estimated scf accuracy    <       1.96823418 Ry

     total magnetization       =     0.05 Bohr mag/cell
     absolute magnetization    =     9.26 Bohr mag/cell

     iteration #  4     ecut=    60.00 Ry     beta= 0.40
     Davidson diagonalization with overlap

---- Real-time Memory Report at c_bands before calling an iterative solver
           330 MiB given to the printing process from OS
             0 MiB allocation reported by mallinfo(arena+hblkhd)
        216473 MiB available memory on the node where the printing process lives
------------------
     ethr =  6.61E-04,  avg # of iterations =  3.1

     total cpu time spent up to now is     4272.6 secs

     total energy              =   -7099.11993300 Ry
     estimated scf accuracy    <      28.71709038 Ry

     total magnetization       =    -1.09 Bohr mag/cell
     absolute magnetization    =     7.43 Bohr mag/cell

     iteration #  5     ecut=    60.00 Ry     beta= 0.40
     Davidson diagonalization with overlap

---- Real-time Memory Report at c_bands before calling an iterative solver
           330 MiB given to the printing process from OS
             0 MiB allocation reported by mallinfo(arena+hblkhd)
        216522 MiB available memory on the node where the printing process lives
------------------
     ethr =  6.61E-04,  avg # of iterations =  2.0
     Minimization algorithm failed to find Fermi energy: reverting to bisection
     Possible cause: smearing is larger than the electronic band-gap.

     total cpu time spent up to now is     6038.6 secs

     total energy              =   -7099.55380021 Ry
     estimated scf accuracy    <       0.05704884 Ry

     total magnetization       =    -0.09 Bohr mag/cell
     absolute magnetization    =    10.00 Bohr mag/cell

     iteration #  6     ecut=    60.00 Ry     beta= 0.40
     Davidson diagonalization with overlap

---- Real-time Memory Report at c_bands before calling an iterative solver
           330 MiB given to the printing process from OS
             0 MiB allocation reported by mallinfo(arena+hblkhd)
        216548 MiB available memory on the node where the printing process lives
------------------
     ethr =  4.13E-05,  avg # of iterations =  3.9
     Minimization algorithm failed to find Fermi energy: reverting to bisection
     Possible cause: smearing is larger than the electronic band-gap.

     total cpu time spent up to now is     7879.2 secs

     total energy              =   -7099.56223726 Ry
     estimated scf accuracy    <       0.04179143 Ry

     total magnetization       =    -0.17 Bohr mag/cell
     absolute magnetization    =     9.95 Bohr mag/cell

     iteration #  7     ecut=    60.00 Ry     beta= 0.40
     Davidson diagonalization with overlap

---- Real-time Memory Report at c_bands before calling an iterative solver
           330 MiB given to the printing process from OS
             0 MiB allocation reported by mallinfo(arena+hblkhd)
        216537 MiB available memory on the node where the printing process lives
------------------
     ethr =  3.03E-05,  avg # of iterations =  2.2
     Minimization algorithm failed to find Fermi energy: reverting to bisection
     Possible cause: smearing is larger than the electronic band-gap.

     total cpu time spent up to now is     8752.0 secs

     total energy              =   -7099.56451470 Ry
     estimated scf accuracy    <       0.01375729 Ry

     total magnetization       =    -0.05 Bohr mag/cell
     absolute magnetization    =     9.96 Bohr mag/cell

     iteration #  8     ecut=    60.00 Ry     beta= 0.40
     Davidson diagonalization with overlap

---- Real-time Memory Report at c_bands before calling an iterative solver
           330 MiB given to the printing process from OS
             0 MiB allocation reported by mallinfo(arena+hblkhd)
        216537 MiB available memory on the node where the printing process lives
------------------
     c_bands:  1 eigenvalues not converged
     c_bands:  1 eigenvalues not converged
     c_bands:  1 eigenvalues not converged
     c_bands:  1 eigenvalues not converged
     c_bands:  1 eigenvalues not converged
     c_bands:  3 eigenvalues not converged
     c_bands:  2 eigenvalues not converged
     ethr =  9.97E-06,  avg # of iterations =  6.9
     Minimization algorithm failed to find Fermi energy: reverting to bisection
     Possible cause: smearing is larger than the electronic band-gap.

     total cpu time spent up to now is     9018.4 secs

     total energy              =   -7099.56538440 Ry
     estimated scf accuracy    <       0.01339779 Ry

     total magnetization       =    -0.10 Bohr mag/cell
     absolute magnetization    =     9.97 Bohr mag/cell

     iteration #  9     ecut=    60.00 Ry     beta= 0.40
     Davidson diagonalization with overlap

---- Real-time Memory Report at c_bands before calling an iterative solver
           330 MiB given to the printing process from OS
             0 MiB allocation reported by mallinfo(arena+hblkhd)
        216468 MiB available memory on the node where the printing process lives
------------------
     ethr =  9.71E-06,  avg # of iterations =  2.5
     Minimization algorithm failed to find Fermi energy: reverting to bisection
     Possible cause: smearing is larger than the electronic band-gap.

     total cpu time spent up to now is     9371.1 secs

     total energy              =   -7099.56568386 Ry
     estimated scf accuracy    <       0.00252488 Ry

     total magnetization       =    -0.04 Bohr mag/cell
     absolute magnetization    =    10.00 Bohr mag/cell

     iteration # 10     ecut=    60.00 Ry     beta= 0.40
     Davidson diagonalization with overlap

---- Real-time Memory Report at c_bands before calling an iterative solver
           330 MiB given to the printing process from OS
             0 MiB allocation reported by mallinfo(arena+hblkhd)
        216439 MiB available memory on the node where the printing process lives
------------------
     c_bands:  1 eigenvalues not converged
     c_bands:  1 eigenvalues not converged
     c_bands:  1 eigenvalues not converged
     c_bands:  1 eigenvalues not converged
     c_bands:  1 eigenvalues not converged
     c_bands:  1 eigenvalues not converged
     c_bands:  1 eigenvalues not converged
     c_bands:  1 eigenvalues not converged
     c_bands:  1 eigenvalues not converged
     c_bands:  1 eigenvalues not converged
     c_bands:  1 eigenvalues not converged
     c_bands:  1 eigenvalues not converged
     c_bands:  1 eigenvalues not converged
     c_bands:  1 eigenvalues not converged
     c_bands:  1 eigenvalues not converged
     c_bands:  1 eigenvalues not converged
     c_bands:  1 eigenvalues not converged
     ethr =  1.83E-06,  avg # of iterations = 12.1
     Minimization algorithm failed to find Fermi energy: reverting to bisection
     Possible cause: smearing is larger than the electronic band-gap.

     total cpu time spent up to now is    11334.5 secs

     total energy              =   -7099.56572347 Ry
     estimated scf accuracy    <       0.00160131 Ry

     total magnetization       =    -0.03 Bohr mag/cell
     absolute magnetization    =    10.00 Bohr mag/cell

     iteration # 11     ecut=    60.00 Ry     beta= 0.40
     Davidson diagonalization with overlap

---- Real-time Memory Report at c_bands before calling an iterative solver
           330 MiB given to the printing process from OS
             0 MiB allocation reported by mallinfo(arena+hblkhd)
        216418 MiB available memory on the node where the printing process lives
------------------
     ethr =  1.16E-06,  avg # of iterations =  2.6
     Minimization algorithm failed to find Fermi energy: reverting to bisection
     Possible cause: smearing is larger than the electronic band-gap.

     total cpu time spent up to now is    12432.9 secs

     total energy              =   -7099.56574045 Ry
     estimated scf accuracy    <       0.00056540 Ry

     total magnetization       =    -0.02 Bohr mag/cell
     absolute magnetization    =    10.01 Bohr mag/cell

     iteration # 12     ecut=    60.00 Ry     beta= 0.40
     Davidson diagonalization with overlap

---- Real-time Memory Report at c_bands before calling an iterative solver
           330 MiB given to the printing process from OS
             0 MiB allocation reported by mallinfo(arena+hblkhd)
        216419 MiB available memory on the node where the printing process lives
------------------
     ethr =  4.10E-07,  avg # of iterations =  1.2
     Minimization algorithm failed to find Fermi energy: reverting to bisection
     Possible cause: smearing is larger than the electronic band-gap.

     total cpu time spent up to now is    14124.0 secs

     total energy              =   -7099.56575367 Ry
     estimated scf accuracy    <       0.00015757 Ry

     total magnetization       =    -0.01 Bohr mag/cell
     absolute magnetization    =    10.01 Bohr mag/cell

     iteration # 13     ecut=    60.00 Ry     beta= 0.40
     Davidson diagonalization with overlap

---- Real-time Memory Report at c_bands before calling an iterative solver
           330 MiB given to the printing process from OS
             0 MiB allocation reported by mallinfo(arena+hblkhd)
        216419 MiB available memory on the node where the printing process lives
------------------
     ethr =  1.14E-07,  avg # of iterations =  1.2
     Minimization algorithm failed to find Fermi energy: reverting to bisection
     Possible cause: smearing is larger than the electronic band-gap.

     total cpu time spent up to now is    14923.6 secs

     total energy              =   -7099.56575910 Ry
     estimated scf accuracy    <       0.00001229 Ry

     total magnetization       =    -0.00 Bohr mag/cell
     absolute magnetization    =    10.01 Bohr mag/cell

     iteration # 14     ecut=    60.00 Ry     beta= 0.40
     Davidson diagonalization with overlap

---- Real-time Memory Report at c_bands before calling an iterative solver
           330 MiB given to the printing process from OS
             0 MiB allocation reported by mallinfo(arena+hblkhd)
        216430 MiB available memory on the node where the printing process lives
------------------
     ethr =  8.91E-09,  avg # of iterations =  5.3
     Minimization algorithm failed to find Fermi energy: reverting to bisection
     Possible cause: smearing is larger than the electronic band-gap.

     total cpu time spent up to now is    15663.3 secs

     total energy              =   -7099.56576026 Ry
     estimated scf accuracy    <       0.00000103 Ry

     total magnetization       =    -0.00 Bohr mag/cell
     absolute magnetization    =    10.01 Bohr mag/cell

     iteration # 15     ecut=    60.00 Ry     beta= 0.40
     Davidson diagonalization with overlap

---- Real-time Memory Report at c_bands before calling an iterative solver
           330 MiB given to the printing process from OS
             0 MiB allocation reported by mallinfo(arena+hblkhd)
        216424 MiB available memory on the node where the printing process lives
------------------
     ethr =  7.47E-10,  avg # of iterations =  3.7
     Minimization algorithm failed to find Fermi energy: reverting to bisection
     Possible cause: smearing is larger than the electronic band-gap.

     total cpu time spent up to now is    16134.9 secs

     total energy              =   -7099.56576041 Ry
     estimated scf accuracy    <       0.00000017 Ry

     total magnetization       =     0.00 Bohr mag/cell
     absolute magnetization    =    10.01 Bohr mag/cell

     iteration # 16     ecut=    60.00 Ry     beta= 0.40
     Davidson diagonalization with overlap

---- Real-time Memory Report at c_bands before calling an iterative solver
           330 MiB given to the printing process from OS
             0 MiB allocation reported by mallinfo(arena+hblkhd)
        216418 MiB available memory on the node where the printing process lives
------------------
     ethr =  1.23E-10,  avg # of iterations =  2.7
     Minimization algorithm failed to find Fermi energy: reverting to bisection
     Possible cause: smearing is larger than the electronic band-gap.
 
     Magnetic moment per site  (integrated on atomic sphere of radius R)
     atom   1 (R=0.045)  charge= 13.6633  magn=  4.3693
     atom   2 (R=0.045)  charge= 13.6634  magn= -4.3693
     atom   3 (R=0.046)  charge= 12.5808  magn= -0.0256
     atom   4 (R=0.046)  charge= 12.5808  magn=  0.0257
     atom   5 (R=0.046)  charge= 12.5808  magn=  0.0257
     atom   6 (R=0.046)  charge= 12.5808  magn= -0.0256
     atom   7 (R=0.045)  charge=  3.8008  magn=  0.0490
     atom   8 (R=0.045)  charge=  3.8008  magn= -0.0491
     atom   9 (R=0.045)  charge=  3.8008  magn= -0.0491
     atom  10 (R=0.045)  charge=  3.8008  magn=  0.0490
     atom  11 (R=0.045)  charge=  3.8461  magn= -0.0304
     atom  12 (R=0.045)  charge=  3.8461  magn=  0.0303
     atom  13 (R=0.045)  charge=  3.8461  magn=  0.0303
     atom  14 (R=0.045)  charge=  3.8461  magn= -0.0304

     total cpu time spent up to now is    16395.0 secs

     End of self-consistent calculation

 ------ SPIN UP ------------


          k = 0.0000 0.0000 0.0000 ( 23485 PWs)   bands (ev):

   -73.9687 -69.3549 -42.7199 -42.7199 -42.7165 -38.1943 -38.1943 -38.1774
   -15.5713 -15.5713 -15.5712 -15.5712 -15.5633 -15.5633 -15.5632 -15.5632
   -15.5599 -15.5596 -15.5545 -15.5545 -15.5544 -15.5544 -15.5531 -15.5528
   -15.5468 -15.5468 -15.5467 -15.5467  -5.6100  -5.5805  -5.4129  -5.3683
    -3.8497  -3.6341  -3.3865  -3.1062  -1.5836  -1.2449  -0.8988  -0.6281
     3.6969   4.2109   4.2595   4.2595   4.8550   4.8550   5.0776   5.1779
     5.5669   5.8321   5.8321   5.9331   5.9331   6.0170   6.0170   6.1479
     6.1479   6.2171   6.3089   6.3089   6.5715   6.9122   6.9122   7.0299
     7.0299   7.4704   7.4853   7.4853   7.7394   8.3157   8.5759   8.5759
     8.5916   8.8517   8.8517   8.8713   8.8713   8.9095   8.9838   9.1439
     9.2704   9.2704   9.3118   9.3118  10.1668  10.1668  11.4657  11.7596
    11.7708  12.5607  12.8656  12.8656  13.2788  13.3369  13.3804  13.3804
    13.5540  13.7092  13.7092  13.8307  13.9255  14.1741  14.1741  14.2296
    14.2296  14.6565  14.7792  14.7792  15.0440  15.1745  15.4149  15.4149
    15.4289  15.5631  15.5631  15.8257  16.0710  16.3261  16.3261  16.3867
    16.3867  16.5904  16.5904  16.6596  16.8972  16.9215  16.9215  17.7846
    18.0708  18.0708  18.2087  18.3266  18.7218  18.7218  19.0222  19.0222
    19.0968  19.0968  19.2132  19.3129  19.5741  20.1370  21.0049  21.0049
    21.1474  21.1779  21.1779  21.2855  21.2855  21.3399  21.6352  21.7165
    21.7165  21.8588  22.9657  23.6317  23.6317  23.8709  23.8709  24.0208
    24.0530  24.0530  24.1581  25.0491  25.0491  25.6160  25.8042  26.1665
    26.5412  26.5412  26.7890  27.2472  27.4578  27.4578  27.4955  27.4955
    27.7870  27.7870  27.9672  28.4256  28.4712  28.5665  28.6214  29.0532
    29.3756  29.4579  29.4579  29.5478  29.6972  29.6972  29.7037  29.7037
    29.9705  29.9707  30.2417  30.2418  30.4611  30.5236  30.6948  30.7701

     occupation numbers 
     1.0000   1.0000   1.0000   1.0000   1.0000   1.0000   1.0000   1.0000
     1.0000   1.0000   1.0000   1.0000   1.0000   1.0000   1.0000   1.0000
     1.0000   1.0000   1.0000   1.0000   1.0000   1.0000   1.0000   1.0000
     1.0000   1.0000   1.0000   1.0000   1.0000   1.0000   1.0000   1.0000
     1.0000   1.0000   1.0000   1.0000   1.0000   1.0000   1.0000   1.0000
     1.0000   1.0000   1.0000   1.0000   1.0000   1.0000   1.0000   1.0000
     1.0000   1.0000   1.0000   1.0000   1.0000   1.0000   1.0000   1.0000
     1.0000   1.0000   1.0000   1.0000   1.0000   1.0040   1.0040   1.0177
     1.0177   0.9026   0.8709   0.8708   0.2344   0.0000   0.0000   0.0000
     0.0000   0.0000   0.0000   0.0000   0.0000   0.0000   0.0000   0.0000
     0.0000   0.0000   0.0000   0.0000   0.0000   0.0000   0.0000   0.0000
     0.0000   0.0000   0.0000   0.0000   0.0000   0.0000   0.0000   0.0000
     0.0000   0.0000   0.0000   0.0000   0.0000   0.0000   0.0000   0.0000
     0.0000   0.0000   0.0000   0.0000   0.0000   0.0000   0.0000   0.0000
     0.0000   0.0000   0.0000   0.0000   0.0000   0.0000   0.0000   0.0000
     0.0000   0.0000   0.0000   0.0000   0.0000   0.0000   0.0000   0.0000
     0.0000   0.0000   0.0000   0.0000   0.0000   0.0000   0.0000   0.0000
     0.0000   0.0000   0.0000   0.0000   0.0000   0.0000   0.0000   0.0000
     0.0000   0.0000   0.0000   0.0000   0.0000   0.0000   0.0000   0.0000
     0.0000   0.0000   0.0000   0.0000   0.0000   0.0000   0.0000   0.0000
     0.0000   0.0000   0.0000   0.0000   0.0000   0.0000   0.0000   0.0000
     0.0000   0.0000   0.0000   0.0000   0.0000   0.0000   0.0000   0.0000
     0.0000   0.0000   0.0000   0.0000   0.0000   0.0000   0.0000   0.0000
     0.0000   0.0000   0.0000   0.0000   0.0000   0.0000   0.0000   0.0000
     0.0000   0.0000   0.0000   0.0000   0.0000   0.0000   0.0000   0.0000

          k =-1.5657-0.9078 0.2500 ( 23485 PWs)   bands (ev):

   -73.9687 -69.3549 -42.7202 -42.7200 -42.7164 -38.1947 -38.1944 -38.1773
   -15.5767 -15.5766 -15.5687 -15.5686 -15.5673 -15.5671 -15.5593 -15.5592
   -15.5582 -15.5581 -15.5537 -15.5537 -15.5517 -15.5517 -15.5508 -15.5507
   -15.5466 -15.5466 -15.5441 -15.5440  -5.0747  -5.0501  -4.8923  -4.8558
    -3.4863  -3.3264  -3.1126  -2.9217  -1.8045  -1.6811  -1.4070  -1.3385
     3.3228   3.4700   3.7295   3.9172   3.9374   4.2604   4.3052   4.4907
     4.6517   4.7434   4.9695   5.0174   5.0586   5.1050   5.1609   5.3361
     5.4484   5.4762   5.7378   5.9801   6.1453   6.1879   6.4728   6.4857
     6.6386   6.7296   6.9971   7.2351   7.4370   8.6192   8.6940   8.8433
     8.8824   9.0577   9.1338   9.2431   9.3494   9.4073   9.6238   9.7013
     9.7659  10.0499  10.3032  10.5164  10.5394  10.9600  11.5626  11.8583
    12.0593  12.3053  12.4483  12.8176  13.3485  13.4847  13.5616  13.6961
    13.8038  14.0919  14.2258  14.3811  14.4906  14.7185  14.7465  14.7599
    14.9277  15.0482  15.2588  15.5146  15.6228  16.0489  16.0839  16.0981
    16.3175  16.6415  16.7851  16.8895  17.1615  17.2303  17.3057  17.3831
    17.5752  17.6514  17.8246  18.2116  18.3151  18.4820  18.8041  18.8181
    18.8956  19.2156  19.3301  19.3529  19.4669  19.5253  19.5644  19.9026
    20.0462  20.0480  20.3188  20.5978  21.0540  21.2063  21.3214  21.4871
    21.9136  22.0074  22.0835  22.0849  22.3068  22.4689  22.5365  22.8299
    22.9082  23.2003  23.5701  23.6801  23.6801  23.7004  23.9023  24.0065
    24.0302  24.1001  24.2102  24.2205  24.2987  24.4585  24.6688  24.8596
    24.9425  24.9493  25.2821  25.2942  25.4195  25.5900  25.7054  25.8086
    25.9059  26.0035  26.0585  26.1770  26.3530  26.4988  26.5987  26.6869
    26.9015  27.0918  27.2750  27.6508  27.8252  27.9532  28.1806  28.2800
    28.3731  28.7587  28.8895  29.0857  29.1005  29.3413  29.4029  29.4581

     occupation numbers 
     1.0000   1.0000   1.0000   1.0000   1.0000   1.0000   1.0000   1.0000
     1.0000   1.0000   1.0000   1.0000   1.0000   1.0000   1.0000   1.0000
     1.0000   1.0000   1.0000   1.0000   1.0000   1.0000   1.0000   1.0000
     1.0000   1.0000   1.0000   1.0000   1.0000   1.0000   1.0000   1.0000
     1.0000   1.0000   1.0000   1.0000   1.0000   1.0000   1.0000   1.0000
     1.0000   1.0000   1.0000   1.0000   1.0000   1.0000   1.0000   1.0000
     1.0000   1.0000   1.0000   1.0000   1.0000   1.0000   1.0000   1.0000
     1.0000   1.0000   1.0000   1.0000   1.0000   1.0000   1.0000   1.0000
     1.0000   1.0002   1.0122   1.0778   0.9648   0.0000   0.0000   0.0000
     0.0000   0.0000   0.0000   0.0000   0.0000   0.0000   0.0000   0.0000
     0.0000   0.0000   0.0000   0.0000   0.0000   0.0000   0.0000   0.0000
     0.0000   0.0000   0.0000   0.0000   0.0000   0.0000   0.0000   0.0000
     0.0000   0.0000   0.0000   0.0000   0.0000   0.0000   0.0000   0.0000
     0.0000   0.0000   0.0000   0.0000   0.0000   0.0000   0.0000   0.0000
     0.0000   0.0000   0.0000   0.0000   0.0000   0.0000   0.0000   0.0000
     0.0000   0.0000   0.0000   0.0000   0.0000   0.0000   0.0000   0.0000
     0.0000   0.0000   0.0000   0.0000   0.0000   0.0000   0.0000   0.0000
     0.0000   0.0000   0.0000   0.0000   0.0000   0.0000   0.0000   0.0000
     0.0000   0.0000   0.0000   0.0000   0.0000   0.0000   0.0000   0.0000
     0.0000   0.0000   0.0000   0.0000   0.0000   0.0000   0.0000   0.0000
     0.0000   0.0000   0.0000   0.0000   0.0000   0.0000   0.0000   0.0000
     0.0000   0.0000   0.0000   0.0000   0.0000   0.0000   0.0000   0.0000
     0.0000   0.0000   0.0000   0.0000   0.0000   0.0000   0.0000   0.0000
     0.0000   0.0000   0.0000   0.0000   0.0000   0.0000   0.0000   0.0000
     0.0000   0.0000   0.0000   0.0000   0.0000   0.0000   0.0000   0.0000

          k = 3.1314 1.8155-0.5000 ( 23516 PWs)   bands (ev):

   -73.9687 -69.3549 -42.7205 -42.7201 -42.7164 -38.1952 -38.1945 -38.1773
   -15.5829 -15.5828 -15.5748 -15.5748 -15.5656 -15.5656 -15.5604 -15.5603
   -15.5576 -15.5576 -15.5528 -15.5528 -15.5487 -15.5486 -15.5464 -15.5463
   -15.5418 -15.5417 -15.5387 -15.5387  -3.9707  -3.9617  -3.9292  -3.9201
    -3.2422  -3.2197  -3.0946  -3.0623  -2.4600  -2.4565  -2.2743  -2.2631
     2.5632   2.6225   2.9169   3.0282   3.5004   3.7464   4.2013   4.2767
     4.3297   4.4608   4.4940   4.5985   4.7581   4.7997   4.8812   4.9622
     5.0066   5.0629   5.1718   5.3531   5.3806   5.8884   5.9053   6.0756
     6.2571   6.3812   6.6452   7.1303   7.3295   8.4012   8.4381   8.5828
     8.8799   8.9843   9.1420   9.1521   9.3707   9.3806   9.5779   9.6260
     9.7067   9.9545  10.5216  10.6402  10.8709  11.0382  11.4473  11.5473
    11.6534  11.9128  12.5305  13.1693  13.5841  13.7548  14.3788  14.4713
    14.7029  14.8894  15.6045  15.7342  16.0854  16.2619  16.5887  16.6315
    16.8245  16.8259  16.9132  16.9163  17.5578  17.6447  17.8991  17.9105
    17.9242  17.9871  18.0760  18.1552  18.1924  18.1992  18.2835  18.3733
    18.6472  18.7117  19.0984  19.1383  19.4641  19.5271  19.5932  19.6448
    19.6450  19.7142  19.7229  19.7699  20.1358  20.2021  20.4180  20.4460
    20.4647  20.5540  20.5817  20.5889  21.0951  21.2121  21.5615  21.5657
    21.5754  21.5872  22.1392  22.2073  22.3536  22.5650  22.5811  22.6856
    22.7485  22.7597  22.9433  22.9570  23.1211  23.1583  23.5116  23.6103
    23.7391  23.7633  23.8417  23.9227  24.3374  24.3534  24.3696  24.4292
    24.5123  24.5306  24.8023  24.8826  25.0416  25.0926  25.1127  25.1192
    25.4605  25.5350  25.7543  25.7782  26.1169  26.1379  26.1798  26.3506
    26.3753  26.4377  26.4970  26.5267  26.6792  26.7218  26.7566  26.8554
    27.0056  27.0252  27.6442  27.6556  27.7494  27.8073  28.0609  28.1237

     occupation numbers 
     1.0000   1.0000   1.0000   1.0000   1.0000   1.0000   1.0000   1.0000
     1.0000   1.0000   1.0000   1.0000   1.0000   1.0000   1.0000   1.0000
     1.0000   1.0000   1.0000   1.0000   1.0000   1.0000   1.0000   1.0000
     1.0000   1.0000   1.0000   1.0000   1.0000   1.0000   1.0000   1.0000
     1.0000   1.0000   1.0000   1.0000   1.0000   1.0000   1.0000   1.0000
     1.0000   1.0000   1.0000   1.0000   1.0000   1.0000   1.0000   1.0000
     1.0000   1.0000   1.0000   1.0000   1.0000   1.0000   1.0000   1.0000
     1.0000   1.0000   1.0000   1.0000   1.0000   1.0000   1.0000   1.0000
     1.0000   1.0000   1.0000   1.0445   1.0739   0.0000   0.0000   0.0000
     0.0000   0.0000   0.0000   0.0000   0.0000   0.0000   0.0000   0.0000
     0.0000   0.0000   0.0000   0.0000   0.0000   0.0000   0.0000   0.0000
     0.0000   0.0000   0.0000   0.0000   0.0000   0.0000   0.0000   0.0000
     0.0000   0.0000   0.0000   0.0000   0.0000   0.0000   0.0000   0.0000
     0.0000   0.0000   0.0000   0.0000   0.0000   0.0000   0.0000   0.0000
     0.0000   0.0000   0.0000   0.0000   0.0000   0.0000   0.0000   0.0000
     0.0000   0.0000   0.0000   0.0000   0.0000   0.0000   0.0000   0.0000
     0.0000   0.0000   0.0000   0.0000   0.0000   0.0000   0.0000   0.0000
     0.0000   0.0000   0.0000   0.0000   0.0000   0.0000   0.0000   0.0000
     0.0000   0.0000   0.0000   0.0000   0.0000   0.0000   0.0000   0.0000
     0.0000   0.0000   0.0000   0.0000   0.0000   0.0000   0.0000   0.0000
     0.0000   0.0000   0.0000   0.0000   0.0000   0.0000   0.0000   0.0000
     0.0000   0.0000   0.0000   0.0000   0.0000   0.0000   0.0000   0.0000
     0.0000   0.0000   0.0000   0.0000   0.0000   0.0000   0.0000   0.0000
     0.0000   0.0000   0.0000   0.0000   0.0000   0.0000   0.0000   0.0000
     0.0000   0.0000   0.0000   0.0000   0.0000   0.0000   0.0000   0.0000

          k = 0.0000 1.8270 0.0000 ( 23485 PWs)   bands (ev):

   -73.9687 -69.3549 -42.7202 -42.7200 -42.7164 -38.1947 -38.1944 -38.1773
   -15.5767 -15.5766 -15.5687 -15.5686 -15.5673 -15.5671 -15.5593 -15.5592
   -15.5582 -15.5581 -15.5537 -15.5537 -15.5517 -15.5517 -15.5508 -15.5507
   -15.5466 -15.5466 -15.5441 -15.5440  -5.0747  -5.0501  -4.8923  -4.8558
    -3.4863  -3.3264  -3.1126  -2.9217  -1.8045  -1.6811  -1.4070  -1.3385
     3.3228   3.4700   3.7295   3.9172   3.9374   4.2604   4.3052   4.4907
     4.6517   4.7434   4.9695   5.0174   5.0586   5.1050   5.1609   5.3361
     5.4484   5.4762   5.7378   5.9801   6.1453   6.1879   6.4728   6.4857
     6.6386   6.7296   6.9971   7.2351   7.4370   8.6192   8.6940   8.8433
     8.8824   9.0577   9.1338   9.2431   9.3494   9.4073   9.6238   9.7013
     9.7659  10.0499  10.3032  10.5163  10.5394  10.9600  11.5626  11.8583
    12.0593  12.3053  12.4483  12.8176  13.3485  13.4847  13.5616  13.6961
    13.8038  14.0919  14.2258  14.3811  14.4906  14.7185  14.7465  14.7599
    14.9277  15.0482  15.2588  15.5146  15.6228  16.0489  16.0839  16.0981
    16.3175  16.6415  16.7851  16.8895  17.1615  17.2303  17.3057  17.3831
    17.5752  17.6514  17.8246  18.2116  18.3151  18.4819  18.8041  18.8181
    18.8956  19.2156  19.3301  19.3529  19.4669  19.5253  19.5644  19.9026
    20.0462  20.0480  20.3188  20.5978  21.0540  21.2063  21.3214  21.4871
    21.9136  22.0074  22.0835  22.0849  22.3068  22.4689  22.5365  22.8299
    22.9082  23.2003  23.5701  23.6801  23.6801  23.7004  23.9023  24.0065
    24.0302  24.1001  24.2102  24.2205  24.2987  24.4585  24.6688  24.8596
    24.9425  24.9493  25.2821  25.2942  25.4195  25.5900  25.7054  25.8086
    25.9059  26.0035  26.0585  26.1770  26.3530  26.4988  26.5987  26.6869
    26.9015  27.0918  27.2750  27.6508  27.8252  27.9532  28.1806  28.2800
    28.3731  28.7588  28.8895  29.0857  29.1005  29.3413  29.4027  29.4581

     occupation numbers 
     1.0000   1.0000   1.0000   1.0000   1.0000   1.0000   1.0000   1.0000
     1.0000   1.0000   1.0000   1.0000   1.0000   1.0000   1.0000   1.0000
     1.0000   1.0000   1.0000   1.0000   1.0000   1.0000   1.0000   1.0000
     1.0000   1.0000   1.0000   1.0000   1.0000   1.0000   1.0000   1.0000
     1.0000   1.0000   1.0000   1.0000   1.0000   1.0000   1.0000   1.0000
     1.0000   1.0000   1.0000   1.0000   1.0000   1.0000   1.0000   1.0000
     1.0000   1.0000   1.0000   1.0000   1.0000   1.0000   1.0000   1.0000
     1.0000   1.0000   1.0000   1.0000   1.0000   1.0000   1.0000   1.0000
     1.0000   1.0002   1.0122   1.0778   0.9648   0.0000   0.0000   0.0000
     0.0000   0.0000   0.0000   0.0000   0.0000   0.0000   0.0000   0.0000
     0.0000   0.0000   0.0000   0.0000   0.0000   0.0000   0.0000   0.0000
     0.0000   0.0000   0.0000   0.0000   0.0000   0.0000   0.0000   0.0000
     0.0000   0.0000   0.0000   0.0000   0.0000   0.0000   0.0000   0.0000
     0.0000   0.0000   0.0000   0.0000   0.0000   0.0000   0.0000   0.0000
     0.0000   0.0000   0.0000   0.0000   0.0000   0.0000   0.0000   0.0000
     0.0000   0.0000   0.0000   0.0000   0.0000   0.0000   0.0000   0.0000
     0.0000   0.0000   0.0000   0.0000   0.0000   0.0000   0.0000   0.0000
     0.0000   0.0000   0.0000   0.0000   0.0000   0.0000   0.0000   0.0000
     0.0000   0.0000   0.0000   0.0000   0.0000   0.0000   0.0000   0.0000
     0.0000   0.0000   0.0000   0.0000   0.0000   0.0000   0.0000   0.0000
     0.0000   0.0000   0.0000   0.0000   0.0000   0.0000   0.0000   0.0000
     0.0000   0.0000   0.0000   0.0000   0.0000   0.0000   0.0000   0.0000
     0.0000   0.0000   0.0000   0.0000   0.0000   0.0000   0.0000   0.0000
     0.0000   0.0000   0.0000   0.0000   0.0000   0.0000   0.0000   0.0000
     0.0000   0.0000   0.0000   0.0000   0.0000   0.0000   0.0000   0.0000

          k =-1.5657 0.9193 0.2500 ( 23458 PWs)   bands (ev):

   -73.9687 -69.3549 -42.7202 -42.7200 -42.7164 -38.1947 -38.1944 -38.1773
   -15.5767 -15.5766 -15.5687 -15.5686 -15.5672 -15.5671 -15.5592 -15.5591
   -15.5581 -15.5580 -15.5537 -15.5536 -15.5517 -15.5517 -15.5508 -15.5507
   -15.5465 -15.5465 -15.5440 -15.5440  -5.0744  -5.0505  -4.8917  -4.8562
    -3.4886  -3.3179  -3.1255  -2.9141  -1.8226  -1.6510  -1.4339  -1.3245
     3.3161   3.4884   3.7568   3.7863   4.0493   4.2670   4.3053   4.4666
     4.6387   4.7435   4.9667   5.0002   5.0539   5.1126   5.1786   5.3255
     5.4578   5.5054   5.7673   6.0054   6.0713   6.1346   6.5121   6.5323
     6.5979   6.7324   6.9722   7.2792   7.4414   8.6003   8.6869   8.8294
     8.8684   9.0518   9.0985   9.1897   9.5021   9.5382   9.5818   9.6014
     9.8208  10.0978  10.1154  10.5029  10.6348  10.9462  11.5782  11.8474
    12.0975  12.2894  12.4086  12.8226  13.3904  13.4559  13.5440  13.6893
    13.8860  14.1497  14.2205  14.2484  14.4905  14.6646  14.6708  14.7978
    14.9666  15.1603  15.3108  15.4305  15.6223  16.0577  16.1336  16.1855
    16.2595  16.3629  16.9581  16.9963  17.1326  17.1930  17.2263  17.4954
    17.5016  17.6574  17.8799  18.1659  18.3379  18.6801  18.6915  18.7422
    18.9696  19.0515  19.1043  19.1684  19.5894  19.6720  19.8397  19.9283
    19.9647  20.1510  20.4533  20.6359  20.7674  20.9750  21.4720  21.6541
    21.8007  21.8727  22.0297  22.1010  22.4189  22.5053  22.6744  22.7382
    22.7537  23.4999  23.6005  23.6185  23.6504  23.8306  23.8423  23.9070
    23.9258  24.0951  24.1512  24.3627  24.3801  24.4750  24.7362  24.8721
    24.8783  25.0910  25.1847  25.3330  25.3553  25.4924  25.5702  25.5751
    25.8415  25.9081  26.0105  26.1931  26.3111  26.5439  26.7883  27.0516
    27.1697  27.2142  27.2972  27.3611  27.7838  28.0301  28.2502  28.2858
    28.6143  28.6427  28.6774  28.8747  28.9198  29.1433  29.3769  29.4883

     occupation numbers 
     1.0000   1.0000   1.0000   1.0000   1.0000   1.0000   1.0000   1.0000
     1.0000   1.0000   1.0000   1.0000   1.0000   1.0000   1.0000   1.0000
     1.0000   1.0000   1.0000   1.0000   1.0000   1.0000   1.0000   1.0000
     1.0000   1.0000   1.0000   1.0000   1.0000   1.0000   1.0000   1.0000
     1.0000   1.0000   1.0000   1.0000   1.0000   1.0000   1.0000   1.0000
     1.0000   1.0000   1.0000   1.0000   1.0000   1.0000   1.0000   1.0000
     1.0000   1.0000   1.0000   1.0000   1.0000   1.0000   1.0000   1.0000
     1.0000   1.0000   1.0000   1.0000   1.0000   1.0000   1.0000   1.0000
     1.0000   1.0002   1.0090   1.0833   0.9574   0.0000   0.0000   0.0000
     0.0000   0.0000   0.0000   0.0000   0.0000   0.0000   0.0000   0.0000
     0.0000   0.0000   0.0000   0.0000   0.0000   0.0000   0.0000   0.0000
     0.0000   0.0000   0.0000   0.0000   0.0000   0.0000   0.0000   0.0000
     0.0000   0.0000   0.0000   0.0000   0.0000   0.0000   0.0000   0.0000
     0.0000   0.0000   0.0000   0.0000   0.0000   0.0000   0.0000   0.0000
     0.0000   0.0000   0.0000   0.0000   0.0000   0.0000   0.0000   0.0000
     0.0000   0.0000   0.0000   0.0000   0.0000   0.0000   0.0000   0.0000
     0.0000   0.0000   0.0000   0.0000   0.0000   0.0000   0.0000   0.0000
     0.0000   0.0000   0.0000   0.0000   0.0000   0.0000   0.0000   0.0000
     0.0000   0.0000   0.0000   0.0000   0.0000   0.0000   0.0000   0.0000
     0.0000   0.0000   0.0000   0.0000   0.0000   0.0000   0.0000   0.0000
     0.0000   0.0000   0.0000   0.0000   0.0000   0.0000   0.0000   0.0000
     0.0000   0.0000   0.0000   0.0000   0.0000   0.0000   0.0000   0.0000
     0.0000   0.0000   0.0000   0.0000   0.0000   0.0000   0.0000   0.0000
     0.0000   0.0000   0.0000   0.0000   0.0000   0.0000   0.0000   0.0000
     0.0000   0.0000   0.0000   0.0000   0.0000   0.0000   0.0000   0.0000

          k = 3.1314 3.6425-0.5000 ( 23534 PWs)   bands (ev):

   -73.9687 -69.3549 -42.7204 -42.7202 -42.7164 -38.1950 -38.1947 -38.1773
   -15.5785 -15.5784 -15.5704 -15.5704 -15.5690 -15.5689 -15.5610 -15.5609
   -15.5557 -15.5556 -15.5533 -15.5532 -15.5480 -15.5479 -15.5477 -15.5477
   -15.5463 -15.5462 -15.5404 -15.5403  -4.1163  -4.1033  -3.9866  -3.9693
    -3.0507  -2.9795  -2.8907  -2.8102  -2.5234  -2.4874  -2.4244  -2.4019
     2.9202   3.0798   3.1567   3.3076   3.4521   3.5124   3.6299   3.7525
     3.9884   4.0113   4.1471   4.3683   4.5534   4.6476   4.8173   4.9247
     5.0070   5.0400   5.2190   5.2809   5.6435   5.6938   5.9509   6.0457
     6.2795   6.3802   6.6356   7.1900   7.4165   8.5613   8.8473   8.9361
     9.0094   9.1081   9.1731   9.2634   9.4470   9.7410   9.9832  10.0602
    10.1444  10.5336  10.6638  10.7951  11.1371  11.2666  12.2571  12.5448
    12.6040  12.7060  12.8543  13.0819  13.1488  13.2155  13.5365  13.8825
    14.1954  14.3423  14.6299  14.6485  15.0715  15.1968  15.3090  15.7267
    15.9936  16.1297  16.4174  16.5945  16.7768  17.1203  17.2211  17.4670
    17.5219  17.5941  17.6285  17.9708  17.9895  18.1256  18.2506  18.3967
    18.7645  18.9216  19.1426  19.2656  19.3082  19.3699  19.5601  19.6713
    19.7964  19.8659  19.9776  20.2375  20.3053  20.3407  20.4262  20.6086
    20.6668  21.0098  21.2721  21.3486  21.6397  21.7687  21.9539  22.0732
    22.2058  22.2798  22.4795  22.6220  22.7289  22.8025  23.0039  23.0695
    23.1134  23.3196  23.3962  23.4425  23.7954  23.9395  24.0342  24.1397
    24.1528  24.3231  24.4420  24.5283  24.6492  24.6836  24.8023  24.8691
    24.9503  25.0635  25.3000  25.3924  25.4535  25.5518  25.6282  25.7527
    25.8290  25.8475  25.8601  26.0343  26.0739  26.1588  26.1817  26.2493
    26.3417  26.5211  26.5933  26.7258  26.8096  26.9492  27.0073  27.0995
    27.3543  27.4192  27.4631  27.8252  27.8653  28.1227  28.1932  28.2828

     occupation numbers 
     1.0000   1.0000   1.0000   1.0000   1.0000   1.0000   1.0000   1.0000
     1.0000   1.0000   1.0000   1.0000   1.0000   1.0000   1.0000   1.0000
     1.0000   1.0000   1.0000   1.0000   1.0000   1.0000   1.0000   1.0000
     1.0000   1.0000   1.0000   1.0000   1.0000   1.0000   1.0000   1.0000
     1.0000   1.0000   1.0000   1.0000   1.0000   1.0000   1.0000   1.0000
     1.0000   1.0000   1.0000   1.0000   1.0000   1.0000   1.0000   1.0000
     1.0000   1.0000   1.0000   1.0000   1.0000   1.0000   1.0000   1.0000
     1.0000   1.0000   1.0000   1.0000   1.0000   1.0000   1.0000   1.0000
     1.0000   1.0000   1.0000   1.0649   0.9964   0.0000   0.0000   0.0000
     0.0000   0.0000   0.0000   0.0000   0.0000   0.0000   0.0000   0.0000
     0.0000   0.0000   0.0000   0.0000   0.0000   0.0000   0.0000   0.0000
     0.0000   0.0000   0.0000   0.0000   0.0000   0.0000   0.0000   0.0000
     0.0000   0.0000   0.0000   0.0000   0.0000   0.0000   0.0000   0.0000
     0.0000   0.0000   0.0000   0.0000   0.0000   0.0000   0.0000   0.0000
     0.0000   0.0000   0.0000   0.0000   0.0000   0.0000   0.0000   0.0000
     0.0000   0.0000   0.0000   0.0000   0.0000   0.0000   0.0000   0.0000
     0.0000   0.0000   0.0000   0.0000   0.0000   0.0000   0.0000   0.0000
     0.0000   0.0000   0.0000   0.0000   0.0000   0.0000   0.0000   0.0000
     0.0000   0.0000   0.0000   0.0000   0.0000   0.0000   0.0000   0.0000
     0.0000   0.0000   0.0000   0.0000   0.0000   0.0000   0.0000   0.0000
     0.0000   0.0000   0.0000   0.0000   0.0000   0.0000   0.0000   0.0000
     0.0000   0.0000   0.0000   0.0000   0.0000   0.0000   0.0000   0.0000
     0.0000   0.0000   0.0000   0.0000   0.0000   0.0000   0.0000   0.0000
     0.0000   0.0000   0.0000   0.0000   0.0000   0.0000   0.0000   0.0000
     0.0000   0.0000   0.0000   0.0000   0.0000   0.0000   0.0000   0.0000

          k = 1.5657 2.7348-0.2500 ( 23538 PWs)   bands (ev):

   -73.9687 -69.3549 -42.7204 -42.7202 -42.7164 -38.1950 -38.1947 -38.1773
   -15.5785 -15.5784 -15.5705 -15.5704 -15.5690 -15.5689 -15.5610 -15.5609
   -15.5557 -15.5556 -15.5533 -15.5533 -15.5480 -15.5479 -15.5477 -15.5476
   -15.5463 -15.5462 -15.5404 -15.5403  -4.1181  -4.1008  -3.9903  -3.9663
    -3.0570  -2.9535  -2.9193  -2.8004  -2.5296  -2.4796  -2.4287  -2.4004
     2.9201   3.0938   3.1218   3.3533   3.5027   3.5078   3.5388   3.7282
     3.9846   4.0408   4.2209   4.3800   4.4793   4.6393   4.8259   4.9327
     5.0096   5.0110   5.2198   5.2893   5.6043   5.8432   5.8797   6.0662
     6.2004   6.4623   6.5595   7.2220   7.4291   8.4900   8.8738   8.9649
     8.9963   9.1655   9.1813   9.3093   9.4124   9.6616   9.7919  10.2251
    10.3893  10.4097  10.6086  10.7102  11.1560  11.3276  12.2354  12.5394
    12.6127  12.6843  12.8983  13.0774  13.1437  13.2209  13.4645  13.9732
    14.1768  14.2641  14.6775  14.7572  15.0373  15.1584  15.2431  15.7244
    16.0982  16.2614  16.2636  16.6086  16.6785  16.9860  17.2386  17.5067
    17.5176  17.6215  17.8049  17.9793  18.0712  18.0798  18.1938  18.5940
    18.6716  18.7387  19.1615  19.2078  19.3439  19.3502  19.5544  19.6745
    19.8019  19.8252  20.1037  20.1425  20.2353  20.2707  20.4473  20.5928
    20.6269  21.1762  21.3938  21.4891  21.7569  21.7847  21.9311  22.1799
    22.1811  22.2634  22.3123  22.3307  22.6581  22.8449  22.9552  23.0096
    23.0804  23.3179  23.4391  23.5307  23.6716  24.0685  24.0926  24.1314
    24.2601  24.2813  24.3832  24.4781  24.6711  24.7354  24.7480  24.8681
    25.1079  25.2087  25.2675  25.3768  25.4357  25.4997  25.7075  25.7374
    25.8201  25.8275  25.8756  25.9437  26.0847  26.1081  26.2859  26.3902
    26.4571  26.5578  26.6437  26.6543  26.7911  26.8420  26.8473  26.9266
    27.1485  27.2746  27.3223  27.7174  27.9422  28.2517  28.2771  28.4862

     occupation numbers 
     1.0000   1.0000   1.0000   1.0000   1.0000   1.0000   1.0000   1.0000
     1.0000   1.0000   1.0000   1.0000   1.0000   1.0000   1.0000   1.0000
     1.0000   1.0000   1.0000   1.0000   1.0000   1.0000   1.0000   1.0000
     1.0000   1.0000   1.0000   1.0000   1.0000   1.0000   1.0000   1.0000
     1.0000   1.0000   1.0000   1.0000   1.0000   1.0000   1.0000   1.0000
     1.0000   1.0000   1.0000   1.0000   1.0000   1.0000   1.0000   1.0000
     1.0000   1.0000   1.0000   1.0000   1.0000   1.0000   1.0000   1.0000
     1.0000   1.0000   1.0000   1.0000   1.0000   1.0000   1.0000   1.0000
     1.0000   1.0000   1.0000   1.0746   0.9776   0.0000   0.0000   0.0000
     0.0000   0.0000   0.0000   0.0000   0.0000   0.0000   0.0000   0.0000
     0.0000   0.0000   0.0000   0.0000   0.0000   0.0000   0.0000   0.0000
     0.0000   0.0000   0.0000   0.0000   0.0000   0.0000   0.0000   0.0000
     0.0000   0.0000   0.0000   0.0000   0.0000   0.0000   0.0000   0.0000
     0.0000   0.0000   0.0000   0.0000   0.0000   0.0000   0.0000   0.0000
     0.0000   0.0000   0.0000   0.0000   0.0000   0.0000   0.0000   0.0000
     0.0000   0.0000   0.0000   0.0000   0.0000   0.0000   0.0000   0.0000
     0.0000   0.0000   0.0000   0.0000   0.0000   0.0000   0.0000   0.0000
     0.0000   0.0000   0.0000   0.0000   0.0000   0.0000   0.0000   0.0000
     0.0000   0.0000   0.0000   0.0000   0.0000   0.0000   0.0000   0.0000
     0.0000   0.0000   0.0000   0.0000   0.0000   0.0000   0.0000   0.0000
     0.0000   0.0000   0.0000   0.0000   0.0000   0.0000   0.0000   0.0000
     0.0000   0.0000   0.0000   0.0000   0.0000   0.0000   0.0000   0.0000
     0.0000   0.0000   0.0000   0.0000   0.0000   0.0000   0.0000   0.0000
     0.0000   0.0000   0.0000   0.0000   0.0000   0.0000   0.0000   0.0000
     0.0000   0.0000   0.0000   0.0000   0.0000   0.0000   0.0000   0.0000

          k = 0.0000-3.6540 0.0000 ( 23516 PWs)   bands (ev):

   -73.9687 -69.3549 -42.7205 -42.7201 -42.7164 -38.1952 -38.1945 -38.1773
   -15.5829 -15.5828 -15.5748 -15.5748 -15.5656 -15.5656 -15.5604 -15.5603
   -15.5576 -15.5576 -15.5528 -15.5528 -15.5487 -15.5486 -15.5464 -15.5463
   -15.5418 -15.5417 -15.5387 -15.5387  -3.9707  -3.9617  -3.9292  -3.9201
    -3.2422  -3.2197  -3.0946  -3.0623  -2.4600  -2.4565  -2.2743  -2.2631
     2.5632   2.6225   2.9169   3.0282   3.5004   3.7464   4.2013   4.2767
     4.3297   4.4608   4.4940   4.5985   4.7581   4.7997   4.8812   4.9622
     5.0066   5.0629   5.1718   5.3531   5.3806   5.8884   5.9053   6.0756
     6.2571   6.3812   6.6452   7.1303   7.3295   8.4012   8.4381   8.5828
     8.8799   8.9843   9.1420   9.1520   9.3707   9.3806   9.5779   9.6260
     9.7067   9.9545  10.5216  10.6402  10.8708  11.0382  11.4473  11.5473
    11.6534  11.9128  12.5305  13.1693  13.5841  13.7548  14.3788  14.4713
    14.7029  14.8894  15.6045  15.7342  16.0854  16.2619  16.5887  16.6315
    16.8245  16.8259  16.9132  16.9163  17.5578  17.6447  17.8991  17.9105
    17.9242  17.9871  18.0760  18.1552  18.1924  18.1992  18.2835  18.3733
    18.6472  18.7117  19.0984  19.1383  19.4641  19.5271  19.5932  19.6448
    19.6450  19.7142  19.7229  19.7699  20.1358  20.2021  20.4180  20.4460
    20.4647  20.5540  20.5817  20.5889  21.0951  21.2121  21.5615  21.5657
    21.5754  21.5872  22.1392  22.2073  22.3536  22.5650  22.5811  22.6856
    22.7485  22.7597  22.9433  22.9570  23.1211  23.1583  23.5116  23.6103
    23.7391  23.7633  23.8417  23.9227  24.3374  24.3534  24.3696  24.4292
    24.5123  24.5306  24.8023  24.8826  25.0416  25.0926  25.1127  25.1192
    25.4605  25.5350  25.7543  25.7782  26.1169  26.1379  26.1798  26.3506
    26.3753  26.4377  26.4970  26.5267  26.6792  26.7218  26.7566  26.8554
    27.0056  27.0252  27.6442  27.6557  27.7494  27.8074  28.0608  28.1241

     occupation numbers 
     1.0000   1.0000   1.0000   1.0000   1.0000   1.0000   1.0000   1.0000
     1.0000   1.0000   1.0000   1.0000   1.0000   1.0000   1.0000   1.0000
     1.0000   1.0000   1.0000   1.0000   1.0000   1.0000   1.0000   1.0000
     1.0000   1.0000   1.0000   1.0000   1.0000   1.0000   1.0000   1.0000
     1.0000   1.0000   1.0000   1.0000   1.0000   1.0000   1.0000   1.0000
     1.0000   1.0000   1.0000   1.0000   1.0000   1.0000   1.0000   1.0000
     1.0000   1.0000   1.0000   1.0000   1.0000   1.0000   1.0000   1.0000
     1.0000   1.0000   1.0000   1.0000   1.0000   1.0000   1.0000   1.0000
     1.0000   1.0000   1.0000   1.0445   1.0739   0.0000   0.0000   0.0000
     0.0000   0.0000   0.0000   0.0000   0.0000   0.0000   0.0000   0.0000
     0.0000   0.0000   0.0000   0.0000   0.0000   0.0000   0.0000   0.0000
     0.0000   0.0000   0.0000   0.0000   0.0000   0.0000   0.0000   0.0000
     0.0000   0.0000   0.0000   0.0000   0.0000   0.0000   0.0000   0.0000
     0.0000   0.0000   0.0000   0.0000   0.0000   0.0000   0.0000   0.0000
     0.0000   0.0000   0.0000   0.0000   0.0000   0.0000   0.0000   0.0000
     0.0000   0.0000   0.0000   0.0000   0.0000   0.0000   0.0000   0.0000
     0.0000   0.0000   0.0000   0.0000   0.0000   0.0000   0.0000   0.0000
     0.0000   0.0000   0.0000   0.0000   0.0000   0.0000   0.0000   0.0000
     0.0000   0.0000   0.0000   0.0000   0.0000   0.0000   0.0000   0.0000
     0.0000   0.0000   0.0000   0.0000   0.0000   0.0000   0.0000   0.0000
     0.0000   0.0000   0.0000   0.0000   0.0000   0.0000   0.0000   0.0000
     0.0000   0.0000   0.0000   0.0000   0.0000   0.0000   0.0000   0.0000
     0.0000   0.0000   0.0000   0.0000   0.0000   0.0000   0.0000   0.0000
     0.0000   0.0000   0.0000   0.0000   0.0000   0.0000   0.0000   0.0000
     0.0000   0.0000   0.0000   0.0000   0.0000   0.0000   0.0000   0.0000

          k =-1.5657-4.5618 0.2500 ( 23534 PWs)   bands (ev):

   -73.9687 -69.3549 -42.7204 -42.7202 -42.7164 -38.1950 -38.1947 -38.1773
   -15.5785 -15.5784 -15.5704 -15.5704 -15.5690 -15.5689 -15.5610 -15.5609
   -15.5557 -15.5556 -15.5533 -15.5532 -15.5480 -15.5479 -15.5477 -15.5477
   -15.5463 -15.5462 -15.5404 -15.5403  -4.1163  -4.1033  -3.9866  -3.9693
    -3.0507  -2.9795  -2.8907  -2.8102  -2.5234  -2.4874  -2.4244  -2.4019
     2.9202   3.0798   3.1567   3.3076   3.4521   3.5124   3.6299   3.7525
     3.9884   4.0113   4.1471   4.3683   4.5534   4.6476   4.8173   4.9247
     5.0070   5.0400   5.2190   5.2809   5.6435   5.6938   5.9509   6.0457
     6.2795   6.3802   6.6356   7.1900   7.4165   8.5613   8.8473   8.9361
     9.0094   9.1081   9.1731   9.2634   9.4470   9.7410   9.9832  10.0602
    10.1444  10.5336  10.6638  10.7951  11.1371  11.2666  12.2571  12.5448
    12.6040  12.7060  12.8543  13.0819  13.1488  13.2155  13.5365  13.8825
    14.1954  14.3423  14.6299  14.6485  15.0715  15.1968  15.3090  15.7267
    15.9936  16.1297  16.4174  16.5945  16.7768  17.1203  17.2211  17.4670
    17.5219  17.5941  17.6285  17.9708  17.9895  18.1256  18.2506  18.3967
    18.7645  18.9216  19.1426  19.2656  19.3082  19.3699  19.5601  19.6713
    19.7964  19.8659  19.9776  20.2375  20.3053  20.3407  20.4262  20.6086
    20.6668  21.0098  21.2721  21.3486  21.6397  21.7687  21.9539  22.0732
    22.2058  22.2798  22.4795  22.6220  22.7289  22.8025  23.0039  23.0695
    23.1134  23.3196  23.3962  23.4425  23.7954  23.9395  24.0342  24.1397
    24.1528  24.3231  24.4420  24.5283  24.6492  24.6836  24.8023  24.8691
    24.9503  25.0635  25.3000  25.3924  25.4535  25.5518  25.6282  25.7527
    25.8290  25.8475  25.8601  26.0343  26.0739  26.1588  26.1817  26.2493
    26.3417  26.5211  26.5933  26.7258  26.8096  26.9492  27.0073  27.0995
    27.3543  27.4192  27.4631  27.8251  27.8653  28.1226  28.1931  28.2846

     occupation numbers 
     1.0000   1.0000   1.0000   1.0000   1.0000   1.0000   1.0000   1.0000
     1.0000   1.0000   1.0000   1.0000   1.0000   1.0000   1.0000   1.0000
     1.0000   1.0000   1.0000   1.0000   1.0000   1.0000   1.0000   1.0000
     1.0000   1.0000   1.0000   1.0000   1.0000   1.0000   1.0000   1.0000
     1.0000   1.0000   1.0000   1.0000   1.0000   1.0000   1.0000   1.0000
     1.0000   1.0000   1.0000   1.0000   1.0000   1.0000   1.0000   1.0000
     1.0000   1.0000   1.0000   1.0000   1.0000   1.0000   1.0000   1.0000
     1.0000   1.0000   1.0000   1.0000   1.0000   1.0000   1.0000   1.0000
     1.0000   1.0000   1.0000   1.0649   0.9964   0.0000   0.0000   0.0000
     0.0000   0.0000   0.0000   0.0000   0.0000   0.0000   0.0000   0.0000
     0.0000   0.0000   0.0000   0.0000   0.0000   0.0000   0.0000   0.0000
     0.0000   0.0000   0.0000   0.0000   0.0000   0.0000   0.0000   0.0000
     0.0000   0.0000   0.0000   0.0000   0.0000   0.0000   0.0000   0.0000
     0.0000   0.0000   0.0000   0.0000   0.0000   0.0000   0.0000   0.0000
     0.0000   0.0000   0.0000   0.0000   0.0000   0.0000   0.0000   0.0000
     0.0000   0.0000   0.0000   0.0000   0.0000   0.0000   0.0000   0.0000
     0.0000   0.0000   0.0000   0.0000   0.0000   0.0000   0.0000   0.0000
     0.0000   0.0000   0.0000   0.0000   0.0000   0.0000   0.0000   0.0000
     0.0000   0.0000   0.0000   0.0000   0.0000   0.0000   0.0000   0.0000
     0.0000   0.0000   0.0000   0.0000   0.0000   0.0000   0.0000   0.0000
     0.0000   0.0000   0.0000   0.0000   0.0000   0.0000   0.0000   0.0000
     0.0000   0.0000   0.0000   0.0000   0.0000   0.0000   0.0000   0.0000
     0.0000   0.0000   0.0000   0.0000   0.0000   0.0000   0.0000   0.0000
     0.0000   0.0000   0.0000   0.0000   0.0000   0.0000   0.0000   0.0000
     0.0000   0.0000   0.0000   0.0000   0.0000   0.0000   0.0000   0.0000

          k = 3.1314-1.8385-0.5000 ( 23494 PWs)   bands (ev):

   -73.9687 -69.3549 -42.7205 -42.7201 -42.7164 -38.1952 -38.1945 -38.1773
   -15.5829 -15.5828 -15.5748 -15.5748 -15.5655 -15.5655 -15.5604 -15.5603
   -15.5576 -15.5575 -15.5528 -15.5527 -15.5487 -15.5486 -15.5463 -15.5463
   -15.5418 -15.5417 -15.5387 -15.5386  -3.9708  -3.9613  -3.9302  -3.9193
    -3.2580  -3.1833  -3.1343  -3.0425  -2.4737  -2.4424  -2.2774  -2.2608
     2.5766   2.6064   2.9247   3.0176   3.5160   3.7707   4.0724   4.2016
     4.4845   4.5236   4.5881   4.6244   4.7226   4.7690   4.8165   4.9306
     4.9639   5.0226   5.1093   5.3938   5.5828   5.7835   5.8684   6.1728
     6.1929   6.3608   6.7230   7.0455   7.3278   8.4011   8.4746   8.8136
     8.9240   8.9573   9.0664   9.1299   9.1930   9.3010   9.3259   9.5745
    10.1275  10.2107  10.2552  10.6665  10.9579  11.0849  11.3144  11.3714
    11.7941  11.8543  12.6117  13.2055  13.3992  14.0011  14.3442  14.3514
    14.9352  15.0179  15.0507  15.7233  16.2173  16.4083  16.5025  16.5943
    16.7884  16.8486  17.0136  17.1657  17.4872  17.6993  17.7707  17.8526
    17.9321  17.9936  18.0484  18.0623  18.1645  18.1720  18.3133  18.6669
    18.7026  18.7806  18.7860  18.9469  19.2074  19.3237  19.3903  19.5903
    19.6599  20.0160  20.0240  20.0978  20.1690  20.3052  20.4017  20.4448
    20.5719  20.5784  20.7995  20.8426  20.9687  21.1072  21.3416  21.3995
    21.4633  21.5105  21.8055  22.0908  22.2417  22.2831  22.4305  22.9100
    23.0652  23.0763  23.1353  23.1540  23.2013  23.4330  23.5278  23.5441
    23.5965  23.6629  23.7917  24.0354  24.0387  24.1686  24.3075  24.3857
    24.4453  24.5946  24.9839  24.9870  25.0623  25.2347  25.3290  25.4219
    25.4952  25.5159  25.7175  25.7789  25.8544  25.8753  25.9555  25.9919
    26.1166  26.1616  26.3792  26.4282  26.6748  26.9169  26.9869  26.9871
    27.3295  27.4042  27.4964  27.6625  27.7867  28.0722  28.1493  28.2588

     occupation numbers 
     1.0000   1.0000   1.0000   1.0000   1.0000   1.0000   1.0000   1.0000
     1.0000   1.0000   1.0000   1.0000   1.0000   1.0000   1.0000   1.0000
     1.0000   1.0000   1.0000   1.0000   1.0000   1.0000   1.0000   1.0000
     1.0000   1.0000   1.0000   1.0000   1.0000   1.0000   1.0000   1.0000
     1.0000   1.0000   1.0000   1.0000   1.0000   1.0000   1.0000   1.0000
     1.0000   1.0000   1.0000   1.0000   1.0000   1.0000   1.0000   1.0000
     1.0000   1.0000   1.0000   1.0000   1.0000   1.0000   1.0000   1.0000
     1.0000   1.0000   1.0000   1.0000   1.0000   1.0000   1.0000   1.0000
     1.0000   1.0000   1.0002   1.0208   1.0745   0.0000   0.0000   0.0000
     0.0000   0.0000   0.0000   0.0000   0.0000   0.0000   0.0000   0.0000
     0.0000   0.0000   0.0000   0.0000   0.0000   0.0000   0.0000   0.0000
     0.0000   0.0000   0.0000   0.0000   0.0000   0.0000   0.0000   0.0000
     0.0000   0.0000   0.0000   0.0000   0.0000   0.0000   0.0000   0.0000
     0.0000   0.0000   0.0000   0.0000   0.0000   0.0000   0.0000   0.0000
     0.0000   0.0000   0.0000   0.0000   0.0000   0.0000   0.0000   0.0000
     0.0000   0.0000   0.0000   0.0000   0.0000   0.0000   0.0000   0.0000
     0.0000   0.0000   0.0000   0.0000   0.0000   0.0000   0.0000   0.0000
     0.0000   0.0000   0.0000   0.0000   0.0000   0.0000   0.0000   0.0000
     0.0000   0.0000   0.0000   0.0000   0.0000   0.0000   0.0000   0.0000
     0.0000   0.0000   0.0000   0.0000   0.0000   0.0000   0.0000   0.0000
     0.0000   0.0000   0.0000   0.0000   0.0000   0.0000   0.0000   0.0000
     0.0000   0.0000   0.0000   0.0000   0.0000   0.0000   0.0000   0.0000
     0.0000   0.0000   0.0000   0.0000   0.0000   0.0000   0.0000   0.0000
     0.0000   0.0000   0.0000   0.0000   0.0000   0.0000   0.0000   0.0000
     0.0000   0.0000   0.0000   0.0000   0.0000   0.0000   0.0000   0.0000

          k = 1.5856-0.9078 0.0000 ( 23485 PWs)   bands (ev):

   -73.9687 -69.3549 -42.7202 -42.7200 -42.7164 -38.1947 -38.1944 -38.1773
   -15.5767 -15.5766 -15.5687 -15.5686 -15.5673 -15.5671 -15.5593 -15.5592
   -15.5582 -15.5581 -15.5537 -15.5537 -15.5517 -15.5517 -15.5508 -15.5507
   -15.5466 -15.5466 -15.5441 -15.5440  -5.0747  -5.0501  -4.8923  -4.8558
    -3.4863  -3.3264  -3.1126  -2.9217  -1.8045  -1.6811  -1.4070  -1.3385
     3.3228   3.4700   3.7295   3.9172   3.9374   4.2604   4.3052   4.4907
     4.6517   4.7434   4.9695   5.0174   5.0586   5.1050   5.1609   5.3361
     5.4484   5.4762   5.7378   5.9801   6.1453   6.1879   6.4728   6.4857
     6.6386   6.7296   6.9971   7.2351   7.4370   8.6192   8.6940   8.8433
     8.8824   9.0577   9.1338   9.2431   9.3494   9.4073   9.6238   9.7013
     9.7659  10.0499  10.3032  10.5163  10.5394  10.9600  11.5626  11.8583
    12.0593  12.3053  12.4483  12.8176  13.3485  13.4847  13.5616  13.6961
    13.8038  14.0919  14.2258  14.3811  14.4906  14.7185  14.7465  14.7599
    14.9277  15.0482  15.2588  15.5146  15.6228  16.0489  16.0839  16.0981
    16.3175  16.6415  16.7851  16.8895  17.1615  17.2303  17.3057  17.3831
    17.5752  17.6514  17.8246  18.2116  18.3151  18.4819  18.8041  18.8181
    18.8956  19.2156  19.3301  19.3529  19.4669  19.5253  19.5644  19.9026
    20.0462  20.0480  20.3188  20.5978  21.0540  21.2063  21.3214  21.4871
    21.9136  22.0074  22.0835  22.0849  22.3068  22.4689  22.5365  22.8299
    22.9082  23.2003  23.5701  23.6801  23.6801  23.7004  23.9023  24.0065
    24.0302  24.1001  24.2102  24.2205  24.2987  24.4585  24.6688  24.8596
    24.9425  24.9493  25.2821  25.2942  25.4195  25.5900  25.7054  25.8086
    25.9059  26.0035  26.0585  26.1770  26.3530  26.4988  26.5987  26.6869
    26.9015  27.0918  27.2750  27.6508  27.8252  27.9532  28.1806  28.2800
    28.3731  28.7588  28.8896  29.0858  29.1006  29.3421  29.4043  29.4586

     occupation numbers 
     1.0000   1.0000   1.0000   1.0000   1.0000   1.0000   1.0000   1.0000
     1.0000   1.0000   1.0000   1.0000   1.0000   1.0000   1.0000   1.0000
     1.0000   1.0000   1.0000   1.0000   1.0000   1.0000   1.0000   1.0000
     1.0000   1.0000   1.0000   1.0000   1.0000   1.0000   1.0000   1.0000
     1.0000   1.0000   1.0000   1.0000   1.0000   1.0000   1.0000   1.0000
     1.0000   1.0000   1.0000   1.0000   1.0000   1.0000   1.0000   1.0000
     1.0000   1.0000   1.0000   1.0000   1.0000   1.0000   1.0000   1.0000
     1.0000   1.0000   1.0000   1.0000   1.0000   1.0000   1.0000   1.0000
     1.0000   1.0002   1.0122   1.0778   0.9648   0.0000   0.0000   0.0000
     0.0000   0.0000   0.0000   0.0000   0.0000   0.0000   0.0000   0.0000
     0.0000   0.0000   0.0000   0.0000   0.0000   0.0000   0.0000   0.0000
     0.0000   0.0000   0.0000   0.0000   0.0000   0.0000   0.0000   0.0000
     0.0000   0.0000   0.0000   0.0000   0.0000   0.0000   0.0000   0.0000
     0.0000   0.0000   0.0000   0.0000   0.0000   0.0000   0.0000   0.0000
     0.0000   0.0000   0.0000   0.0000   0.0000   0.0000   0.0000   0.0000
     0.0000   0.0000   0.0000   0.0000   0.0000   0.0000   0.0000   0.0000
     0.0000   0.0000   0.0000   0.0000   0.0000   0.0000   0.0000   0.0000
     0.0000   0.0000   0.0000   0.0000   0.0000   0.0000   0.0000   0.0000
     0.0000   0.0000   0.0000   0.0000   0.0000   0.0000   0.0000   0.0000
     0.0000   0.0000   0.0000   0.0000   0.0000   0.0000   0.0000   0.0000
     0.0000   0.0000   0.0000   0.0000   0.0000   0.0000   0.0000   0.0000
     0.0000   0.0000   0.0000   0.0000   0.0000   0.0000   0.0000   0.0000
     0.0000   0.0000   0.0000   0.0000   0.0000   0.0000   0.0000   0.0000
     0.0000   0.0000   0.0000   0.0000   0.0000   0.0000   0.0000   0.0000
     0.0000   0.0000   0.0000   0.0000   0.0000   0.0000   0.0000   0.0000

          k = 0.0198-1.8155 0.2500 ( 23458 PWs)   bands (ev):

   -73.9687 -69.3549 -42.7202 -42.7200 -42.7164 -38.1947 -38.1944 -38.1773
   -15.5767 -15.5766 -15.5687 -15.5686 -15.5672 -15.5671 -15.5592 -15.5591
   -15.5581 -15.5580 -15.5537 -15.5536 -15.5517 -15.5517 -15.5508 -15.5507
   -15.5465 -15.5465 -15.5440 -15.5440  -5.0744  -5.0505  -4.8917  -4.8562
    -3.4886  -3.3179  -3.1255  -2.9141  -1.8226  -1.6510  -1.4339  -1.3245
     3.3161   3.4884   3.7568   3.7863   4.0493   4.2670   4.3053   4.4666
     4.6387   4.7435   4.9667   5.0002   5.0539   5.1126   5.1786   5.3255
     5.4578   5.5054   5.7673   6.0054   6.0713   6.1346   6.5121   6.5323
     6.5979   6.7324   6.9722   7.2792   7.4414   8.6003   8.6869   8.8294
     8.8684   9.0518   9.0985   9.1897   9.5021   9.5382   9.5818   9.6014
     9.8208  10.0978  10.1154  10.5029  10.6348  10.9462  11.5782  11.8474
    12.0975  12.2894  12.4086  12.8226  13.3904  13.4559  13.5440  13.6893
    13.8860  14.1497  14.2205  14.2484  14.4905  14.6646  14.6708  14.7978
    14.9666  15.1603  15.3108  15.4305  15.6223  16.0577  16.1336  16.1855
    16.2595  16.3629  16.9581  16.9963  17.1326  17.1930  17.2263  17.4954
    17.5016  17.6574  17.8799  18.1659  18.3379  18.6801  18.6915  18.7422
    18.9696  19.0515  19.1043  19.1684  19.5894  19.6720  19.8397  19.9283
    19.9647  20.1510  20.4533  20.6359  20.7674  20.9750  21.4720  21.6541
    21.8007  21.8727  22.0297  22.1010  22.4189  22.5053  22.6744  22.7382
    22.7537  23.4999  23.6005  23.6185  23.6504  23.8306  23.8423  23.9070
    23.9258  24.0951  24.1512  24.3627  24.3801  24.4750  24.7362  24.8721
    24.8783  25.0910  25.1847  25.3330  25.3553  25.4924  25.5702  25.5751
    25.8415  25.9081  26.0105  26.1931  26.3111  26.5439  26.7883  27.0516
    27.1697  27.2142  27.2972  27.3611  27.7838  28.0301  28.2502  28.2858
    28.6143  28.6427  28.6775  28.8747  28.9202  29.1436  29.3791  29.4889

     occupation numbers 
     1.0000   1.0000   1.0000   1.0000   1.0000   1.0000   1.0000   1.0000
     1.0000   1.0000   1.0000   1.0000   1.0000   1.0000   1.0000   1.0000
     1.0000   1.0000   1.0000   1.0000   1.0000   1.0000   1.0000   1.0000
     1.0000   1.0000   1.0000   1.0000   1.0000   1.0000   1.0000   1.0000
     1.0000   1.0000   1.0000   1.0000   1.0000   1.0000   1.0000   1.0000
     1.0000   1.0000   1.0000   1.0000   1.0000   1.0000   1.0000   1.0000
     1.0000   1.0000   1.0000   1.0000   1.0000   1.0000   1.0000   1.0000
     1.0000   1.0000   1.0000   1.0000   1.0000   1.0000   1.0000   1.0000
     1.0000   1.0002   1.0090   1.0833   0.9574   0.0000   0.0000   0.0000
     0.0000   0.0000   0.0000   0.0000   0.0000   0.0000   0.0000   0.0000
     0.0000   0.0000   0.0000   0.0000   0.0000   0.0000   0.0000   0.0000
     0.0000   0.0000   0.0000   0.0000   0.0000   0.0000   0.0000   0.0000
     0.0000   0.0000   0.0000   0.0000   0.0000   0.0000   0.0000   0.0000
     0.0000   0.0000   0.0000   0.0000   0.0000   0.0000   0.0000   0.0000
     0.0000   0.0000   0.0000   0.0000   0.0000   0.0000   0.0000   0.0000
     0.0000   0.0000   0.0000   0.0000   0.0000   0.0000   0.0000   0.0000
     0.0000   0.0000   0.0000   0.0000   0.0000   0.0000   0.0000   0.0000
     0.0000   0.0000   0.0000   0.0000   0.0000   0.0000   0.0000   0.0000
     0.0000   0.0000   0.0000   0.0000   0.0000   0.0000   0.0000   0.0000
     0.0000   0.0000   0.0000   0.0000   0.0000   0.0000   0.0000   0.0000
     0.0000   0.0000   0.0000   0.0000   0.0000   0.0000   0.0000   0.0000
     0.0000   0.0000   0.0000   0.0000   0.0000   0.0000   0.0000   0.0000
     0.0000   0.0000   0.0000   0.0000   0.0000   0.0000   0.0000   0.0000
     0.0000   0.0000   0.0000   0.0000   0.0000   0.0000   0.0000   0.0000
     0.0000   0.0000   0.0000   0.0000   0.0000   0.0000   0.0000   0.0000

          k = 4.7170 0.9078-0.5000 ( 23534 PWs)   bands (ev):

   -73.9687 -69.3549 -42.7204 -42.7202 -42.7164 -38.1950 -38.1947 -38.1773
   -15.5785 -15.5784 -15.5704 -15.5704 -15.5690 -15.5689 -15.5610 -15.5609
   -15.5557 -15.5556 -15.5533 -15.5532 -15.5480 -15.5479 -15.5477 -15.5477
   -15.5463 -15.5462 -15.5404 -15.5403  -4.1163  -4.1033  -3.9866  -3.9693
    -3.0507  -2.9795  -2.8907  -2.8102  -2.5234  -2.4874  -2.4244  -2.4019
     2.9202   3.0798   3.1567   3.3076   3.4521   3.5124   3.6299   3.7525
     3.9884   4.0113   4.1471   4.3683   4.5534   4.6476   4.8173   4.9247
     5.0070   5.0400   5.2190   5.2809   5.6435   5.6938   5.9509   6.0457
     6.2795   6.3802   6.6356   7.1900   7.4165   8.5613   8.8473   8.9361
     9.0094   9.1081   9.1731   9.2634   9.4470   9.7410   9.9832  10.0602
    10.1444  10.5336  10.6638  10.7951  11.1371  11.2666  12.2571  12.5448
    12.6040  12.7060  12.8543  13.0819  13.1488  13.2155  13.5365  13.8825
    14.1954  14.3423  14.6299  14.6485  15.0715  15.1968  15.3090  15.7267
[...]
   -15.5462 -15.5461 -15.5403 -15.5403  -4.1132  -4.1070  -3.9803  -3.9750
    -3.0414  -2.9997  -2.8659  -2.8257  -2.5130  -2.4991  -2.4201  -2.4040
     2.9202   3.0730   3.2185   3.2310   3.4445   3.4994   3.7302   3.7467
     3.9868   3.9908   4.0775   4.3576   4.6074   4.6680   4.8124   4.9027
     5.0063   5.0996   5.1243   5.4287   5.4710   5.7506   5.8773   6.1894
     6.1939   6.3833   6.6868   7.1555   7.4028   8.6969   8.7586   8.9226
     9.0045   9.0696   9.1358   9.1966   9.6557   9.7905   9.9073   9.9547
    10.2844  10.3116  10.7612  10.9346  11.1282  11.1549  12.2786  12.5525
    12.5927  12.7554  12.7862  13.0835  13.1542  13.2112  13.6707  13.7402
    14.2141  14.4548  14.5371  14.5679  15.1034  15.1526  15.5496  15.5868
    15.9069  16.1094  16.4861  16.5552  17.0247  17.0675  17.3374  17.3655
    17.4403  17.4458  17.7831  17.8088  18.0206  18.0968  18.1900  18.3422
    19.0022  19.0118  19.1330  19.1542  19.3008  19.4428  19.4779  19.5606
    19.8901  19.9210  20.1581  20.2421  20.2884  20.3158  20.4847  20.5222
    20.7927  20.8193  21.1441  21.1637  21.7206  21.8027  21.9490  21.9651
    22.1627  22.2299  22.6456  22.6821  22.8027  22.8662  23.1478  23.1521
    23.2252  23.2441  23.4554  23.4636  23.7578  23.7633  23.9433  23.9572
    24.2356  24.2490  24.4384  24.5408  24.6224  24.6538  24.8367  24.9275
    25.1293  25.1774  25.2350  25.2602  25.4761  25.5354  25.5515  25.5965
    25.7946  25.8166  25.9000  25.9081  26.0216  26.0989  26.2121  26.2130
    26.4614  26.5034  26.6794  26.7291  26.9301  27.0629  27.2803  27.3330
    27.3933  27.4403  27.6194  27.6486  27.9458  27.9658  28.0628  28.1026

     occupation numbers 
     1.0000   1.0000   1.0000   1.0000   1.0000   1.0000   1.0000   1.0000
     1.0000   1.0000   1.0000   1.0000   1.0000   1.0000   1.0000   1.0000
     1.0000   1.0000   1.0000   1.0000   1.0000   1.0000   1.0000   1.0000
     1.0000   1.0000   1.0000   1.0000   1.0000   1.0000   1.0000   1.0000
     1.0000   1.0000   1.0000   1.0000   1.0000   1.0000   1.0000   1.0000
     1.0000   1.0000   1.0000   1.0000   1.0000   1.0000   1.0000   1.0000
     1.0000   1.0000   1.0000   1.0000   1.0000   1.0000   1.0000   1.0000
     1.0000   1.0000   1.0000   1.0000   1.0000   1.0000   1.0000   1.0000
     1.0000   1.0000   1.0001   1.0531   1.0146   0.0000   0.0000   0.0000
     0.0000   0.0000   0.0000   0.0000   0.0000   0.0000   0.0000   0.0000
     0.0000   0.0000   0.0000   0.0000   0.0000   0.0000   0.0000   0.0000
     0.0000   0.0000   0.0000   0.0000   0.0000   0.0000   0.0000   0.0000
     0.0000   0.0000   0.0000   0.0000   0.0000   0.0000   0.0000   0.0000
     0.0000   0.0000   0.0000   0.0000   0.0000   0.0000   0.0000   0.0000
     0.0000   0.0000   0.0000   0.0000   0.0000   0.0000   0.0000   0.0000
     0.0000   0.0000   0.0000   0.0000   0.0000   0.0000   0.0000   0.0000
     0.0000   0.0000   0.0000   0.0000   0.0000   0.0000   0.0000   0.0000
     0.0000   0.0000   0.0000   0.0000   0.0000   0.0000   0.0000   0.0000
     0.0000   0.0000   0.0000   0.0000   0.0000   0.0000   0.0000   0.0000
     0.0000   0.0000   0.0000   0.0000   0.0000   0.0000   0.0000   0.0000
     0.0000   0.0000   0.0000   0.0000   0.0000   0.0000   0.0000   0.0000
     0.0000   0.0000   0.0000   0.0000   0.0000   0.0000   0.0000   0.0000
     0.0000   0.0000   0.0000   0.0000   0.0000   0.0000   0.0000   0.0000
     0.0000   0.0000   0.0000   0.0000   0.0000   0.0000   0.0000   0.0000
     0.0000   0.0000   0.0000   0.0000   0.0000   0.0000   0.0000   0.0000

          k =-3.1711-1.8385 0.0000 ( 23494 PWs)   bands (ev):

   -73.9689 -69.3552 -42.7207 -42.7203 -42.7165 -38.1954 -38.1948 -38.1775
   -15.5830 -15.5829 -15.5748 -15.5747 -15.5656 -15.5655 -15.5604 -15.5604
   -15.5575 -15.5574 -15.5527 -15.5526 -15.5488 -15.5487 -15.5464 -15.5463
   -15.5417 -15.5416 -15.5386 -15.5385  -3.9708  -3.9613  -3.9302  -3.9193
    -3.2581  -3.1834  -3.1344  -3.0427  -2.4737  -2.4425  -2.2775  -2.2609
     2.5766   2.6064   2.9247   3.0176   3.5161   3.7707   4.0724   4.2016
     4.4845   4.5236   4.5881   4.6243   4.7225   4.7690   4.8165   4.9305
     4.9638   5.0226   5.1092   5.3938   5.5828   5.7835   5.8683   6.1727
     6.1928   6.3608   6.7230   7.0455   7.3276   8.4011   8.4745   8.8136
     8.9239   8.9574   9.0665   9.1298   9.1929   9.3010   9.3258   9.5746
    10.1275  10.2107  10.2552  10.6666  10.9578  11.0849  11.3144  11.3714
    11.7940  11.8544  12.6117  13.2055  13.3993  14.0011  14.3442  14.3515
    14.9352  15.0179  15.0507  15.7233  16.2174  16.4083  16.5025  16.5943
    16.7884  16.8486  17.0136  17.1657  17.4872  17.6994  17.7708  17.8526
    17.9322  17.9937  18.0483  18.0623  18.1645  18.1721  18.3132  18.6669
    18.7027  18.7807  18.7862  18.9469  19.2075  19.3237  19.3904  19.5903
    19.6599  20.0160  20.0239  20.0978  20.1690  20.3052  20.4018  20.4449
    20.5719  20.5784  20.7996  20.8426  20.9685  21.1072  21.3416  21.3995
    21.4633  21.5105  21.8055  22.0909  22.2418  22.2833  22.4305  22.9100
    23.0653  23.0764  23.1354  23.1540  23.2013  23.4330  23.5278  23.5442
    23.5966  23.6629  23.7918  24.0354  24.0388  24.1687  24.3075  24.3858
    24.4453  24.5946  24.9840  24.9870  25.0623  25.2348  25.3291  25.4219
    25.4952  25.5160  25.7175  25.7788  25.8544  25.8753  25.9556  25.9920
    26.1166  26.1617  26.3791  26.4282  26.6748  26.9170  26.9870  26.9871
    27.3296  27.4043  27.4965  27.6625  27.7867  28.0723  28.1494  28.2589

     occupation numbers 
     1.0000   1.0000   1.0000   1.0000   1.0000   1.0000   1.0000   1.0000
     1.0000   1.0000   1.0000   1.0000   1.0000   1.0000   1.0000   1.0000
     1.0000   1.0000   1.0000   1.0000   1.0000   1.0000   1.0000   1.0000
     1.0000   1.0000   1.0000   1.0000   1.0000   1.0000   1.0000   1.0000
     1.0000   1.0000   1.0000   1.0000   1.0000   1.0000   1.0000   1.0000
     1.0000   1.0000   1.0000   1.0000   1.0000   1.0000   1.0000   1.0000
     1.0000   1.0000   1.0000   1.0000   1.0000   1.0000   1.0000   1.0000
     1.0000   1.0000   1.0000   1.0000   1.0000   1.0000   1.0000   1.0000
     1.0000   1.0000   1.0002   1.0208   1.0746   0.0000   0.0000   0.0000
     0.0000   0.0000   0.0000   0.0000   0.0000   0.0000   0.0000   0.0000
     0.0000   0.0000   0.0000   0.0000   0.0000   0.0000   0.0000   0.0000
     0.0000   0.0000   0.0000   0.0000   0.0000   0.0000   0.0000   0.0000
     0.0000   0.0000   0.0000   0.0000   0.0000   0.0000   0.0000   0.0000
     0.0000   0.0000   0.0000   0.0000   0.0000   0.0000   0.0000   0.0000
     0.0000   0.0000   0.0000   0.0000   0.0000   0.0000   0.0000   0.0000
     0.0000   0.0000   0.0000   0.0000   0.0000   0.0000   0.0000   0.0000
     0.0000   0.0000   0.0000   0.0000   0.0000   0.0000   0.0000   0.0000
     0.0000   0.0000   0.0000   0.0000   0.0000   0.0000   0.0000   0.0000
     0.0000   0.0000   0.0000   0.0000   0.0000   0.0000   0.0000   0.0000
     0.0000   0.0000   0.0000   0.0000   0.0000   0.0000   0.0000   0.0000
     0.0000   0.0000   0.0000   0.0000   0.0000   0.0000   0.0000   0.0000
     0.0000   0.0000   0.0000   0.0000   0.0000   0.0000   0.0000   0.0000
     0.0000   0.0000   0.0000   0.0000   0.0000   0.0000   0.0000   0.0000
     0.0000   0.0000   0.0000   0.0000   0.0000   0.0000   0.0000   0.0000
     0.0000   0.0000   0.0000   0.0000   0.0000   0.0000   0.0000   0.0000

          k =-4.7368-2.7463 0.2500 ( 23474 PWs)   bands (ev):

   -73.9689 -69.3552 -42.7204 -42.7202 -42.7165 -38.1950 -38.1946 -38.1776
   -15.5768 -15.5767 -15.5686 -15.5685 -15.5673 -15.5672 -15.5591 -15.5590
   -15.5582 -15.5581 -15.5538 -15.5537 -15.5518 -15.5517 -15.5507 -15.5505
   -15.5465 -15.5464 -15.5440 -15.5439  -5.0690  -5.0575  -4.8804  -4.8660
    -3.4643  -3.3721  -3.0594  -2.9528  -1.7987  -1.6842  -1.4139  -1.3330
     3.3035   3.5682   3.6465   3.7805   4.1353   4.2470   4.3052   4.4877
     4.5930   4.7435   4.9724   5.0146   5.0606   5.0991   5.1585   5.3548
     5.4310   5.4514   5.8391   6.0100   6.1546   6.1874   6.3525   6.4678
     6.6493   6.6649   7.0769   7.2826   7.4369   8.5753   8.6427   8.8832
     8.9366   9.0439   9.0628   9.1755   9.4351   9.4475   9.6280   9.7236
     9.8608  10.0635  10.0859  10.5179  10.6293  10.9426  11.5854  11.8023
    12.2064  12.2549  12.3670  12.8224  13.3615  13.4966  13.6188  13.6867
    13.8497  14.0585  14.2248  14.2475  14.4151  14.6510  14.6915  14.8396
    15.0077  15.2738  15.3627  15.4108  15.7933  15.8068  16.0904  16.2353
    16.2572  16.4116  16.6235  16.7673  17.0253  17.3140  17.3208  17.5695
    17.9524  18.0589  18.0610  18.1656  18.3299  18.4470  18.4639  18.6165
    18.6826  18.8013  19.0533  19.1773  19.4472  19.5520  20.1091  20.1269
    20.1677  20.4672  20.4894  20.9217  20.9925  21.0616  21.1336  21.2668
    21.2691  21.7169  22.0317  22.0885  22.2908  22.5678  22.6935  23.2171
    23.2693  23.4142  23.5609  23.5681  23.6584  23.7570  23.8834  23.9614
    24.0047  24.0839  24.1705  24.2433  24.3116  24.3819  24.6455  24.8671
    24.9078  24.9660  24.9757  25.0954  25.4727  25.4979  25.5983  25.7428
    25.8586  25.9493  26.2017  26.3354  26.3896  26.4248  26.8126  26.8155
    26.9520  27.3110  27.3506  27.6587  27.9405  27.9738  28.2722  28.3055
    28.5890  28.5993  28.7012  28.7327  28.9213  29.1050  29.1636  29.2855

     occupation numbers 
     1.0000   1.0000   1.0000   1.0000   1.0000   1.0000   1.0000   1.0000
     1.0000   1.0000   1.0000   1.0000   1.0000   1.0000   1.0000   1.0000
     1.0000   1.0000   1.0000   1.0000   1.0000   1.0000   1.0000   1.0000
     1.0000   1.0000   1.0000   1.0000   1.0000   1.0000   1.0000   1.0000
     1.0000   1.0000   1.0000   1.0000   1.0000   1.0000   1.0000   1.0000
     1.0000   1.0000   1.0000   1.0000   1.0000   1.0000   1.0000   1.0000
     1.0000   1.0000   1.0000   1.0000   1.0000   1.0000   1.0000   1.0000
     1.0000   1.0000   1.0000   1.0000   1.0000   1.0000   1.0000   1.0000
     1.0000   1.0000   1.0284   1.0833   0.9650   0.0000   0.0000   0.0000
     0.0000   0.0000   0.0000   0.0000   0.0000   0.0000   0.0000   0.0000
     0.0000   0.0000   0.0000   0.0000   0.0000   0.0000   0.0000   0.0000
     0.0000   0.0000   0.0000   0.0000   0.0000   0.0000   0.0000   0.0000
     0.0000   0.0000   0.0000   0.0000   0.0000   0.0000   0.0000   0.0000
     0.0000   0.0000   0.0000   0.0000   0.0000   0.0000   0.0000   0.0000
     0.0000   0.0000   0.0000   0.0000   0.0000   0.0000   0.0000   0.0000
     0.0000   0.0000   0.0000   0.0000   0.0000   0.0000   0.0000   0.0000
     0.0000   0.0000   0.0000   0.0000   0.0000   0.0000   0.0000   0.0000
     0.0000   0.0000   0.0000   0.0000   0.0000   0.0000   0.0000   0.0000
     0.0000   0.0000   0.0000   0.0000   0.0000   0.0000   0.0000   0.0000
     0.0000   0.0000   0.0000   0.0000   0.0000   0.0000   0.0000   0.0000
     0.0000   0.0000   0.0000   0.0000   0.0000   0.0000   0.0000   0.0000
     0.0000   0.0000   0.0000   0.0000   0.0000   0.0000   0.0000   0.0000
     0.0000   0.0000   0.0000   0.0000   0.0000   0.0000   0.0000   0.0000
     0.0000   0.0000   0.0000   0.0000   0.0000   0.0000   0.0000   0.0000
     0.0000   0.0000   0.0000   0.0000   0.0000   0.0000   0.0000   0.0000

          k =-0.0397-0.0230-0.5000 ( 23456 PWs)   bands (ev):

   -73.9689 -69.3552 -42.7201 -42.7201 -42.7166 -38.1945 -38.1945 -38.1777
   -15.5713 -15.5713 -15.5713 -15.5713 -15.5631 -15.5631 -15.5631 -15.5631
   -15.5598 -15.5596 -15.5546 -15.5546 -15.5544 -15.5544 -15.5529 -15.5527
   -15.5467 -15.5467 -15.5465 -15.5465  -5.6008  -5.5924  -5.3916  -5.3870
    -3.8028  -3.7285  -3.2460  -3.2048  -1.4588  -1.4242  -0.7375  -0.7297
     3.7069   4.1869   4.2594   4.2594   4.8549   4.8549   5.0866   5.2829
     5.4250   5.8306   5.8306   5.9465   5.9465   5.9949   5.9949   6.1678
     6.1678   6.2968   6.2968   6.3914   6.4240   6.9354   6.9354   7.0046
     7.0046   7.4907   7.4907   7.5943   7.6090   8.4038   8.5068   8.5557
     8.5557   8.8279   8.8280   8.9070   8.9909   8.9909   9.0357   9.1067
     9.1067   9.1134   9.4015   9.4015  10.1630  10.1630  11.4734  11.7034
    11.8172  12.5934  12.8661  12.8662  13.1913  13.3099  13.3718  13.3718
    13.6094  13.7845  13.8345  13.8345  13.8994  13.8994  14.2254  14.3084
    14.5422  14.5422  14.5511  14.5511  15.1399  15.1516  15.6701  15.6932
    15.6932  15.7004  15.8285  15.8285  15.8453  15.8453  15.9242  15.9242
    16.1791  16.2648  17.1138  17.1138  17.2192  17.2192  17.2834  17.4583
    17.9298  17.9298  17.9387  17.9387  18.5350  18.6335  18.7890  18.8607
    19.6247  19.6247  19.6735  19.6735  20.1594  20.3214  20.3341  20.3341
    20.3440  20.3440  20.7416  20.8787  22.1409  22.1626  22.3652  22.3652
    22.4283  22.4283  22.8414  22.8414  22.9039  22.9039  23.0599  23.0881
    25.1082  25.2587  25.3406  25.3406  25.3436  25.3436  25.8074  25.8400
    26.0925  26.0925  26.1768  26.1768  27.2197  27.2593  28.2630  28.3486
    28.4346  28.4551  28.5244  28.5244  28.5441  28.5441  28.5917  28.6033
    29.1295  29.1295  29.1923  29.1923  29.3822  29.3834  29.8389  29.8389
    29.8880  29.8880  30.2240  30.2240  30.2625  30.2626  30.4764  30.6674

     occupation numbers 
     1.0000   1.0000   1.0000   1.0000   1.0000   1.0000   1.0000   1.0000
     1.0000   1.0000   1.0000   1.0000   1.0000   1.0000   1.0000   1.0000
     1.0000   1.0000   1.0000   1.0000   1.0000   1.0000   1.0000   1.0000
     1.0000   1.0000   1.0000   1.0000   1.0000   1.0000   1.0000   1.0000
     1.0000   1.0000   1.0000   1.0000   1.0000   1.0000   1.0000   1.0000
     1.0000   1.0000   1.0000   1.0000   1.0000   1.0000   1.0000   1.0000
     1.0000   1.0000   1.0000   1.0000   1.0000   1.0000   1.0000   1.0000
     1.0000   1.0000   1.0000   1.0000   1.0000   1.0055   1.0055   1.0133
     1.0133   0.8587   0.8587   0.5889   0.5484   0.0000   0.0000   0.0000
     0.0000   0.0000   0.0000   0.0000   0.0000   0.0000   0.0000   0.0000
     0.0000   0.0000   0.0000   0.0000   0.0000   0.0000   0.0000   0.0000
     0.0000   0.0000   0.0000   0.0000   0.0000   0.0000   0.0000   0.0000
     0.0000   0.0000   0.0000   0.0000   0.0000   0.0000   0.0000   0.0000
     0.0000   0.0000   0.0000   0.0000   0.0000   0.0000   0.0000   0.0000
     0.0000   0.0000   0.0000   0.0000   0.0000   0.0000   0.0000   0.0000
     0.0000   0.0000   0.0000   0.0000   0.0000   0.0000   0.0000   0.0000
     0.0000   0.0000   0.0000   0.0000   0.0000   0.0000   0.0000   0.0000
     0.0000   0.0000   0.0000   0.0000   0.0000   0.0000   0.0000   0.0000
     0.0000   0.0000   0.0000   0.0000   0.0000   0.0000   0.0000   0.0000
     0.0000   0.0000   0.0000   0.0000   0.0000   0.0000   0.0000   0.0000
     0.0000   0.0000   0.0000   0.0000   0.0000   0.0000   0.0000   0.0000
     0.0000   0.0000   0.0000   0.0000   0.0000   0.0000   0.0000   0.0000
     0.0000   0.0000   0.0000   0.0000   0.0000   0.0000   0.0000   0.0000
     0.0000   0.0000   0.0000   0.0000   0.0000   0.0000   0.0000   0.0000
     0.0000   0.0000   0.0000   0.0000   0.0000   0.0000   0.0000   0.0000

     the Fermi energy is     7.6646 ev

!    total energy              =   -7099.56576040 Ry
     total all-electron energy =   -285595.644910 Ry
     estimated scf accuracy    <       0.00000006 Ry
     smearing contrib. (-TS)   =       0.00878706 Ry
     internal energy E=F+TS    =   -7099.57454747 Ry

     The total energy is F=E-TS. E is the sum of the following terms:
     one-electron contribution =    -652.73984475 Ry
     hartree contribution      =     403.77439485 Ry
     xc contribution           =    -318.65642104 Ry
     ewald contribution        =    -672.20711731 Ry
     one-center paw contrib.   =   -5859.74555922 Ry
      -> PAW hartree energy AE =     162.56620699 Ry
      -> PAW hartree energy PS =    -163.65857915 Ry
      -> PAW xc energy AE      =    -103.81946701 Ry
      -> PAW xc energy PS      =      27.17959634 Ry
      -> total E_H with PAW    =     402.68202270 Ry
      -> total E_XC with PAW   =    -395.29629170 Ry

     total magnetization       =    -0.00 Bohr mag/cell
     absolute magnetization    =    10.01 Bohr mag/cell

     convergence has been achieved in  16 iterations

     Writing all to output data dir ./tmp/MnBi2Te4.save/
 
     init_run     :    102.60s CPU    104.46s WALL (       1 calls)
     electrons    :  16153.49s CPU  16290.28s WALL (       1 calls)

     Called by init_run:
     wfcinit      :    101.80s CPU    103.40s WALL (       1 calls)
     wfcinit:atom :      0.01s CPU      0.01s WALL (      72 calls)
     wfcinit:wfcr :    101.69s CPU    103.29s WALL (      72 calls)
     potinit      :      0.41s CPU      0.52s WALL (       1 calls)
     hinit0       :      0.28s CPU      0.31s WALL (       1 calls)

     Called by electrons:
     c_bands      :  12908.58s CPU  13017.47s WALL (      17 calls)
     sum_band     :   3222.78s CPU   3248.63s WALL (      17 calls)
     v_of_rho     :      7.76s CPU      8.81s WALL (      17 calls)
     v_h          :      0.68s CPU      0.73s WALL (      17 calls)
     v_xc         :      7.08s CPU      8.08s WALL (      17 calls)
     newd         :      1.25s CPU      1.61s WALL (      17 calls)
     PAW_pot      :      3.66s CPU      4.17s WALL (      17 calls)
     mix_rho      :      7.93s CPU      8.05s WALL (      17 calls)

     Called by c_bands:
     init_us_2    :      1.11s CPU      1.25s WALL (    2520 calls)
     init_us_2:cp :      1.10s CPU      1.24s WALL (    2520 calls)
     cegterg      :  12880.56s CPU  12989.03s WALL (    1224 calls)

     Called by sum_band:
     sum_band:wei :      0.33s CPU      0.34s WALL (      17 calls)
     sum_band:loo :   3212.81s CPU   3238.17s WALL (      17 calls)
     sum_band:buf :      0.57s CPU      0.76s WALL (    1224 calls)
     sum_band:ini :      0.56s CPU      0.66s WALL (    1224 calls)
     sum_band:cal :     47.47s CPU     55.84s WALL (    1224 calls)
     sum_band:bec :      0.55s CPU      0.57s WALL (    1224 calls)
     addusdens    :      0.78s CPU      1.11s WALL (      17 calls)
                                        0.00s GPU  (      17 calls)
     addusd:skk   :      0.01s CPU      0.01s WALL (      68 calls)
                                        0.00s GPU  (      68 calls)

     Called by *egterg:
     cdiaghg      :    188.68s CPU    194.30s WALL (    5901 calls)
     cegterg:over :    193.78s CPU    205.92s WALL (    4749 calls)
     cegterg:upda :    103.61s CPU    106.24s WALL (    4749 calls)
     cegterg:last :    121.44s CPU    127.25s WALL (    2430 calls)
     cdiaghg:chol :     36.90s CPU     37.18s WALL (    5901 calls)
     cdiaghg:inve :      2.68s CPU      2.70s WALL (    5901 calls)
     cdiaghg:para :     37.62s CPU     40.98s WALL (   11802 calls)
     h_psi        :  12231.11s CPU  12309.38s WALL (    6045 calls)
     s_psi        :     12.23s CPU     12.41s WALL (    6045 calls)
     g_psi        :      0.31s CPU      0.31s WALL (    4749 calls)

     Called by h_psi:
     h_psi:calbec :    142.83s CPU    158.06s WALL (    6045 calls)
     vloc_psi     :  12072.37s CPU  12135.18s WALL (    6045 calls)
     add_vuspsi   :     14.79s CPU     14.97s WALL (    6045 calls)

     General routines
     calbec       :    190.26s CPU    213.87s WALL (    7269 calls)
     fft          :      4.64s CPU      5.26s WALL (     357 calls)
     ffts         :      0.35s CPU      0.39s WALL (      34 calls)
     fftw         :  14798.04s CPU  14873.09s WALL ( 1357612 calls)
 
     Parallel routines

     PAW routines
     PAW_pot      :      3.66s CPU      4.17s WALL (      17 calls)
     PAW_symme    :      0.67s CPU      0.68s WALL (      34 calls)
 
     PWSCF        :      4h31m CPU      4h33m WALL

 
   This run was terminated on:  11:11:23  15Jun2025            

=------------------------------------------------------------------------------=
   JOB DONE.
=------------------------------------------------------------------------------=
