
     Program PWSCF v.7.2 starts on 15Jun2025 at 11:11:23 

     This program is part of the open-source Quantum ESPRESSO suite
     for quantum simulation of materials; please cite
         "P. Giannozzi et al., J. Phys.:Condens. Matter 21 395502 (2009);
         "P. Giannozzi et al., J. Phys.:Condens. Matter 29 465901 (2017);
         "P. Giannozzi et al., J. Chem. Phys. 152 154105 (2020);
          URL http://www.quantum-espresso.org", 
     in publications or presentations arising from this work. More details at
     http://www.quantum-espresso.org/quote

     Parallel version (MPI), running on    64 processors

     MPI processes distributed on     1 nodes
     225288 MiB available memory on the printing compute node when the environment starts
 
     Reading input from MnBi2Te4.nscf.in

     Current dimensions of program PWSCF are:
     Max number of different atomic species (ntypx) = 10
     Max number of k-points (npk) =  40000
     Max angular momentum in pseudopotentials (lmaxx) =  4

     Atomic positions and unit cell read from directory:
     ./tmp/MnBi2Te4.save/
     Atomic positions from file used, from input discarded
 
     file Mn.pbe-spn-kjpaw_psl.0.3.1.UPF: wavefunction(s)  3P 3D renormalized
     file Mn.pbe-spn-kjpaw_psl.0.3.1.UPF: wavefunction(s)  3P 3D renormalized
     file Bi.pbe-dn-kjpaw_psl.1.0.0.UPF: wavefunction(s)  6P 5D renormalized
     file Te.pbe-n-kjpaw_psl.1.0.0.UPF: wavefunction(s)  5S 5P renormalized
     Message from routine setup:
     using ibrav=0 with symmetry is DISCOURAGED, use correct ibrav instead
 
     R & G space division:  proc/nbgrp/npool/nimage =      64
     Subspace diagonalization in iterative solution of the eigenvalue problem:
     one sub-group per band group will be used
     scalapack distributed-memory algorithm (size of sub-group:  2*  2 procs)

 
     Parallelization info
     --------------------
     sticks:   dense  smooth     PW     G-vecs:    dense   smooth      PW
     Min         126     126     38                 2936     2936     488
     Max         127     127     39                 2938     2938     489
     Sum        8079    8079   2441               187971   187971   31237
 
     Using Slab Decomposition
 


     bravais-lattice index     =            0
     lattice parameter (alat)  =      51.7756  a.u.
     unit-cell volume          =    2994.5593 (a.u.)^3
     number of atoms/cell      =           14
     number of atomic types    =            4
     number of electrons       =       138.00
     number of Kohn-Sham states=          200
     kinetic-energy cutoff     =      60.0000  Ry
     charge density cutoff     =     240.0000  Ry
     Exchange-correlation= SLA  PW   PBX  PBC
                           (   1   4   3   4   0   0   0)

     celldm(1)=  51.775623  celldm(2)=   0.000000  celldm(3)=   0.000000
     celldm(4)=   0.000000  celldm(5)=   0.000000  celldm(6)=   0.000000

     crystal axes: (cart. coord. in units of alat)
               a(1) = (   0.157674   0.000000   0.987491 )  
               a(2) = (   0.078341   0.136835   0.987491 )  
               a(3) = (   0.000000   0.000000   1.000000 )  

     reciprocal axes: (cart. coord. in units 2 pi/alat)
               b(1) = (  6.342202 -3.631040  0.000000 )  
               b(2) = (  0.000000  7.308076  0.000000 )  
               b(3) = ( -6.262868 -3.631040  1.000000 )  


     PseudoPot. # 1 for Mn read from file:
     ./Mn.pbe-spn-kjpaw_psl.0.3.1.UPF
     MD5 check sum: 872d0d815bb0ce6e24cff79ea4d0ae31
     Pseudo is Projector augmented-wave + core cor, Zval = 15.0
     Generated using &quot;atomic&quot; code by A. Dal Corso  v.6.2.2
     Shape of augmentation charge: PSQ
     Using radial grid of 1187 points,  6 beta functions with: 
                l(1) =   0
                l(2) =   0
                l(3) =   1
                l(4) =   1
                l(5) =   2
                l(6) =   2
     Q(r) pseudized with 0 coefficients 


     PseudoPot. # 2 for Mn read from file:
     ./Mn.pbe-spn-kjpaw_psl.0.3.1.UPF
     MD5 check sum: 872d0d815bb0ce6e24cff79ea4d0ae31
     Pseudo is Projector augmented-wave + core cor, Zval = 15.0
     Generated using &quot;atomic&quot; code by A. Dal Corso  v.6.2.2
     Shape of augmentation charge: PSQ
     Using radial grid of 1187 points,  6 beta functions with: 
                l(1) =   0
                l(2) =   0
                l(3) =   1
                l(4) =   1
                l(5) =   2
                l(6) =   2
     Q(r) pseudized with 0 coefficients 


     PseudoPot. # 3 for Bi read from file:
     ./Bi.pbe-dn-kjpaw_psl.1.0.0.UPF
     MD5 check sum: 29baffecec4108f41a587bcf9a453472
     Pseudo is Projector augmented-wave + core cor, Zval = 15.0
     Generated using &quot;atomic&quot; code by A. Dal Corso  v.6.2.2
     Shape of augmentation charge: PSQ
     Using radial grid of 1283 points,  6 beta functions with: 
                l(1) =   0
                l(2) =   0
                l(3) =   1
                l(4) =   1
                l(5) =   2
                l(6) =   2
     Q(r) pseudized with 0 coefficients 


     PseudoPot. # 4 for Te read from file:
     ./Te.pbe-n-kjpaw_psl.1.0.0.UPF
     MD5 check sum: 960f80ef2db6fd2ef753b89a550c1479
     Pseudo is Projector augmented-wave + core cor, Zval =  6.0
     Generated using &quot;atomic&quot; code by A. Dal Corso  v.6.3
     Shape of augmentation charge: PSQ
     Using radial grid of 1245 points,  6 beta functions with: 
                l(1) =   0
                l(2) =   0
                l(3) =   1
                l(4) =   1
                l(5) =   2
                l(6) =   2
     Q(r) pseudized with 0 coefficients 


     atomic species   valence    mass     pseudopotential
        Mn1           15.00    54.93800     Mn( 1.00)
        Mn2           15.00    54.93800     Mn( 1.00)
        Bi            15.00   208.98000     Bi( 1.00)
        Te             6.00   127.60300     Te( 1.00)

     Starting magnetic structure 
     atomic species   magnetization
        Mn1          0.333
        Mn2         -0.333
        Bi           0.000
        Te           0.000

      2 Sym. Ops., with inversion, found


                                    s                        frac. trans.

      isym =  1     identity                                     

 cryst.   s( 1) = (     1          0          0      )
                  (     0          1          0      )
                  (     0          0          1      )

 cart.    s( 1) = (  1.0000000  0.0000000  0.0000000 )
                  (  0.0000000  1.0000000  0.0000000 )
                  (  0.0000000  0.0000000  1.0000000 )


      isym =  2     inversion                                    

 cryst.   s( 2) = (    -1          0          0      )
                  (     0         -1          0      )
                  (     0          0         -1      )

 cart.    s( 2) = ( -1.0000000  0.0000000  0.0000000 )
                  (  0.0000000 -1.0000000  0.0000000 )
                  (  0.0000000  0.0000000 -1.0000000 )


   Cartesian axes

     site n.     atom                  positions (alat units)
         1           Mn1 tau(   1) = (   0.0000000   0.0000000   0.0000000  )
         2           Mn2 tau(   2) = (   0.1180074   0.0684175   1.4874912  )
         3           Bi  tau(   3) = (   0.0501413   0.0290706   0.6320350  )
         4           Bi  tau(   4) = (   0.1681487   0.0974880   2.1195262  )
         5           Bi  tau(   5) = (   0.0678660   0.0393469   0.8554562  )
         6           Bi  tau(   6) = (   0.1858734   0.1077643   2.3429474  )
         7           Te  tau(   7) = (   0.0157375   0.0091242   0.1983718  )
         8           Te  tau(   8) = (   0.1337448   0.0775416   1.6858631  )
         9           Te  tau(   9) = (   0.1022699   0.0592933   1.2891194  )
        10           Te  tau(  10) = (   0.2202773   0.1277108   2.7766106  )
        11           Te  tau(  11) = (   0.0347012   0.0201188   0.4374117  )
        12           Te  tau(  12) = (   0.1527086   0.0885363   1.9249029  )
        13           Te  tau(  13) = (   0.0833061   0.0482986   1.0500796  )
        14           Te  tau(  14) = (   0.2013135   0.1167161   2.5375708  )

   Crystallographic axes

     site n.     atom                  positions (cryst. coord.)
         1           Mn1 tau(   1) = (  0.0000000  0.0000000  0.0000000  )
         2           Mn2 tau(   2) = (  0.5000000  0.5000000  0.5000000  )
         3           Bi  tau(   3) = (  0.2124500  0.2124500  0.2124500  )
         4           Bi  tau(   4) = (  0.7124500  0.7124500  0.7124500  )
         5           Bi  tau(   5) = (  0.2875500  0.2875500  0.2875500  )
         6           Bi  tau(   6) = (  0.7875500  0.7875500  0.7875500  )
         7           Te  tau(   7) = (  0.0666800  0.0666800  0.0666800  )
         8           Te  tau(   8) = (  0.5666800  0.5666800  0.5666800  )
         9           Te  tau(   9) = (  0.4333200  0.4333200  0.4333200  )
        10           Te  tau(  10) = (  0.9333200  0.9333200  0.9333200  )
        11           Te  tau(  11) = (  0.1470300  0.1470300  0.1470300  )
        12           Te  tau(  12) = (  0.6470300  0.6470300  0.6470300  )
        13           Te  tau(  13) = (  0.3529700  0.3529700  0.3529700  )
        14           Te  tau(  14) = (  0.8529700  0.8529700  0.8529700  )

     number of k points=   260  Marzari-Vanderbilt smearing, width (Ry)=  0.0200
                       cart. coord. in units 2pi/alat
        k(    1) = (   0.0000000   0.0000000   0.0000000), wk =   0.0019531
        k(    2) = (  -0.7828585  -0.4538800   0.1250000), wk =   0.0039062
        k(    3) = (  -1.5657171  -0.9077601   0.2500000), wk =   0.0039062
        k(    4) = (  -2.3485756  -1.3616401   0.3750000), wk =   0.0039062
        k(    5) = (   3.1314342   1.8155202  -0.5000000), wk =   0.0019531
        k(    6) = (   0.0000000   0.9135095   0.0000000), wk =   0.0039062
        k(    7) = (  -0.7828585   0.4596294   0.1250000), wk =   0.0039062
        k(    8) = (  -1.5657171   0.0057494   0.2500000), wk =   0.0039062
        k(    9) = (  -2.3485756  -0.4481306   0.3750000), wk =   0.0039062
        k(   10) = (   3.1314342   2.7290297  -0.5000000), wk =   0.0039062
        k(   11) = (   2.3485756   2.2751496  -0.3750000), wk =   0.0039062
        k(   12) = (   1.5657171   1.8212696  -0.2500000), wk =   0.0039062
        k(   13) = (   0.7828585   1.3673895  -0.1250000), wk =   0.0039062
        k(   14) = (   0.0000000   1.8270190   0.0000000), wk =   0.0039062
        k(   15) = (  -0.7828585   1.3731389   0.1250000), wk =   0.0039062
        k(   16) = (  -1.5657171   0.9192589   0.2500000), wk =   0.0039062
        k(   17) = (  -2.3485756   0.4653788   0.3750000), wk =   0.0039062
        k(   18) = (   3.1314342   3.6425392  -0.5000000), wk =   0.0039062
        k(   19) = (   2.3485756   3.1886591  -0.3750000), wk =   0.0039062
        k(   20) = (   1.5657171   2.7347791  -0.2500000), wk =   0.0039062
        k(   21) = (   0.7828585   2.2808990  -0.1250000), wk =   0.0039062
        k(   22) = (   0.0000000   2.7405285   0.0000000), wk =   0.0039062
        k(   23) = (  -0.7828585   2.2866484   0.1250000), wk =   0.0039062
        k(   24) = (  -1.5657171   1.8327684   0.2500000), wk =   0.0039062
        k(   25) = (  -2.3485756   1.3788883   0.3750000), wk =   0.0039062
        k(   26) = (   3.1314342   4.5560487  -0.5000000), wk =   0.0039062
        k(   27) = (   2.3485756   4.1021686  -0.3750000), wk =   0.0039062
        k(   28) = (   1.5657171   3.6482886  -0.2500000), wk =   0.0039062
        k(   29) = (   0.7828585   3.1944085  -0.1250000), wk =   0.0039062
        k(   30) = (   0.0000000  -3.6540380   0.0000000), wk =   0.0019531
        k(   31) = (  -0.7828585  -4.1079180   0.1250000), wk =   0.0039062
        k(   32) = (  -1.5657171  -4.5617981   0.2500000), wk =   0.0039062
        k(   33) = (  -2.3485756  -5.0156781   0.3750000), wk =   0.0039062
        k(   34) = (   3.1314342  -1.8385178  -0.5000000), wk =   0.0019531
        k(   35) = (   0.7927752  -0.4538800   0.0000000), wk =   0.0039062
        k(   36) = (   0.0099166  -0.9077601   0.1250000), wk =   0.0039062
        k(   37) = (  -0.7729419  -1.3616401   0.2500000), wk =   0.0039062
        k(   38) = (  -1.5558004  -1.8155202   0.3750000), wk =   0.0039062
        k(   39) = (   3.9242094   1.3616401  -0.5000000), wk =   0.0039062
        k(   40) = (   3.1413508   0.9077601  -0.3750000), wk =   0.0039062
        k(   41) = (   2.3584923   0.4538800  -0.2500000), wk =   0.0039062
        k(   42) = (   1.5756337   0.0000000  -0.1250000), wk =   0.0039062
        k(   43) = (   0.7927752   0.4596294   0.0000000), wk =   0.0039062
        k(   44) = (   0.0099166   0.0057494   0.1250000), wk =   0.0039062
        k(   45) = (  -0.7729419  -0.4481306   0.2500000), wk =   0.0039062
        k(   46) = (  -1.5558004  -0.9020107   0.3750000), wk =   0.0039062
        k(   47) = (   3.9242094   2.2751496  -0.5000000), wk =   0.0039062
        k(   48) = (   3.1413508   1.8212696  -0.3750000), wk =   0.0039062
        k(   49) = (   2.3584923   1.3673895  -0.2500000), wk =   0.0039062
        k(   50) = (   1.5756337   0.9135095  -0.1250000), wk =   0.0039062
        k(   51) = (   0.7927752   1.3731389   0.0000000), wk =   0.0039062
        k(   52) = (   0.0099166   0.9192589   0.1250000), wk =   0.0039062
        k(   53) = (  -0.7729419   0.4653788   0.2500000), wk =   0.0039062
        k(   54) = (  -1.5558004   0.0114988   0.3750000), wk =   0.0039062
        k(   55) = (   3.9242094   3.1886591  -0.5000000), wk =   0.0039062
        k(   56) = (   3.1413508   2.7347791  -0.3750000), wk =   0.0039062
        k(   57) = (   2.3584923   2.2808990  -0.2500000), wk =   0.0039062
        k(   58) = (   1.5756337   1.8270190  -0.1250000), wk =   0.0039062
        k(   59) = (   0.7927752   2.2866484   0.0000000), wk =   0.0039062
        k(   60) = (   0.0099166   1.8327684   0.1250000), wk =   0.0039062
        k(   61) = (  -0.7729419   1.3788883   0.2500000), wk =   0.0039062
        k(   62) = (  -1.5558004   0.9250083   0.3750000), wk =   0.0039062
        k(   63) = (   3.9242094   4.1021686  -0.5000000), wk =   0.0039062
        k(   64) = (   3.1413508   3.6482886  -0.3750000), wk =   0.0039062
        k(   65) = (   2.3584923   3.1944085  -0.2500000), wk =   0.0039062
        k(   66) = (   1.5756337   2.7405285  -0.1250000), wk =   0.0039062
        k(   67) = (   0.7927752  -4.1079180   0.0000000), wk =   0.0039062
        k(   68) = (   0.0099166  -4.5617981   0.1250000), wk =   0.0039062
        k(   69) = (  -0.7729419  -5.0156781   0.2500000), wk =   0.0039062
        k(   70) = (  -1.5558004  -5.4695582   0.3750000), wk =   0.0039062
        k(   71) = (   3.9242094  -2.2923978  -0.5000000), wk =   0.0039062
        k(   72) = (   3.1413508  -2.7462779  -0.3750000), wk =   0.0039062
        k(   73) = (   2.3584923  -3.2001579  -0.2500000), wk =   0.0039062
        k(   74) = (   1.5756337  -3.6540380  -0.1250000), wk =   0.0039062
        k(   75) = (   0.7927752  -3.1944085   0.0000000), wk =   0.0039062
        k(   76) = (   0.0099166  -3.6482886   0.1250000), wk =   0.0039062
        k(   77) = (  -0.7729419  -4.1021686   0.2500000), wk =   0.0039062
        k(   78) = (  -1.5558004  -4.5560487   0.3750000), wk =   0.0039062
        k(   79) = (   3.9242094  -1.3788883  -0.5000000), wk =   0.0039062
        k(   80) = (   3.1413508  -1.8327684  -0.3750000), wk =   0.0039062
        k(   81) = (   2.3584923  -2.2866484  -0.2500000), wk =   0.0039062
        k(   82) = (   1.5756337  -2.7405285  -0.1250000), wk =   0.0039062
        k(   83) = (   0.7927752  -2.2808990   0.0000000), wk =   0.0039062
        k(   84) = (   0.0099166  -2.7347791   0.1250000), wk =   0.0039062
        k(   85) = (  -0.7729419  -3.1886591   0.2500000), wk =   0.0039062
        k(   86) = (  -1.5558004  -3.6425392   0.3750000), wk =   0.0039062
        k(   87) = (   3.9242094  -0.4653788  -0.5000000), wk =   0.0039062
        k(   88) = (   3.1413508  -0.9192589  -0.3750000), wk =   0.0039062
        k(   89) = (   2.3584923  -1.3731389  -0.2500000), wk =   0.0039062
        k(   90) = (   1.5756337  -1.8270190  -0.1250000), wk =   0.0039062
        k(   91) = (   0.7927752  -1.3673895   0.0000000), wk =   0.0039062
        k(   92) = (   0.0099166  -1.8212696   0.1250000), wk =   0.0039062
        k(   93) = (  -0.7729419  -2.2751496   0.2500000), wk =   0.0039062
        k(   94) = (  -1.5558004  -2.7290297   0.3750000), wk =   0.0039062
        k(   95) = (   3.9242094   0.4481306  -0.5000000), wk =   0.0039062
        k(   96) = (   3.1413508  -0.0057494  -0.3750000), wk =   0.0039062
        k(   97) = (   2.3584923  -0.4596294  -0.2500000), wk =   0.0039062
        k(   98) = (   1.5756337  -0.9135095  -0.1250000), wk =   0.0039062
        k(   99) = (   1.5855504  -0.9077601   0.0000000), wk =   0.0039062
        k(  100) = (   0.8026918  -1.3616401   0.1250000), wk =   0.0039062
        k(  101) = (   0.0198333  -1.8155202   0.2500000), wk =   0.0039062
        k(  102) = (  -0.7630253  -2.2694002   0.3750000), wk =   0.0039062
        k(  103) = (   4.7169845   0.9077601  -0.5000000), wk =   0.0039062
        k(  104) = (   3.9341260   0.4538800  -0.3750000), wk =   0.0039062
        k(  105) = (   3.1512675   0.0000000  -0.2500000), wk =   0.0039062
        k(  106) = (   2.3684089  -0.4538800  -0.1250000), wk =   0.0039062
        k(  107) = (   1.5855504   0.0057494   0.0000000), wk =   0.0039062
        k(  108) = (   0.8026918  -0.4481306   0.1250000), wk =   0.0039062
        k(  109) = (   0.0198333  -0.9020107   0.2500000), wk =   0.0039062
        k(  110) = (  -0.7630253  -1.3558907   0.3750000), wk =   0.0039062
        k(  111) = (   4.7169845   1.8212696  -0.5000000), wk =   0.0039062
        k(  112) = (   3.9341260   1.3673895  -0.3750000), wk =   0.0039062
        k(  113) = (   3.1512675   0.9135095  -0.2500000), wk =   0.0039062
        k(  114) = (   2.3684089   0.4596294  -0.1250000), wk =   0.0039062
        k(  115) = (   1.5855504   0.9192589   0.0000000), wk =   0.0039062
        k(  116) = (   0.8026918   0.4653788   0.1250000), wk =   0.0039062
        k(  117) = (   0.0198333   0.0114988   0.2500000), wk =   0.0039062
        k(  118) = (  -0.7630253  -0.4423812   0.3750000), wk =   0.0039062
        k(  119) = (   4.7169845   2.7347791  -0.5000000), wk =   0.0039062
        k(  120) = (   3.9341260   2.2808990  -0.3750000), wk =   0.0039062
        k(  121) = (   3.1512675   1.8270190  -0.2500000), wk =   0.0039062
        k(  122) = (   2.3684089   1.3731389  -0.1250000), wk =   0.0039062
        k(  123) = (   1.5855504   1.8327684   0.0000000), wk =   0.0039062
        k(  124) = (   0.8026918   1.3788883   0.1250000), wk =   0.0039062
        k(  125) = (   0.0198333   0.9250083   0.2500000), wk =   0.0039062
        k(  126) = (  -0.7630253   0.4711282   0.3750000), wk =   0.0039062
        k(  127) = (   4.7169845   3.6482886  -0.5000000), wk =   0.0039062
        k(  128) = (   3.9341260   3.1944085  -0.3750000), wk =   0.0039062
        k(  129) = (   3.1512675   2.7405285  -0.2500000), wk =   0.0039062
        k(  130) = (   2.3684089   2.2866484  -0.1250000), wk =   0.0039062
        k(  131) = (   1.5855504  -4.5617981   0.0000000), wk =   0.0039062
        k(  132) = (   0.8026918  -5.0156781   0.1250000), wk =   0.0039062
        k(  133) = (   0.0198333  -5.4695582   0.2500000), wk =   0.0039062
        k(  134) = (  -0.7630253  -5.9234382   0.3750000), wk =   0.0039062
        k(  135) = (   4.7169845  -2.7462779  -0.5000000), wk =   0.0039062
        k(  136) = (   3.9341260  -3.2001579  -0.3750000), wk =   0.0039062
        k(  137) = (   3.1512675  -3.6540380  -0.2500000), wk =   0.0039062
        k(  138) = (   2.3684089  -4.1079180  -0.1250000), wk =   0.0039062
        k(  139) = (   1.5855504  -3.6482886   0.0000000), wk =   0.0039062
        k(  140) = (   0.8026918  -4.1021686   0.1250000), wk =   0.0039062
        k(  141) = (   0.0198333  -4.5560487   0.2500000), wk =   0.0039062
        k(  142) = (  -0.7630253  -5.0099287   0.3750000), wk =   0.0039062
        k(  143) = (   4.7169845  -1.8327684  -0.5000000), wk =   0.0039062
        k(  144) = (   3.9341260  -2.2866484  -0.3750000), wk =   0.0039062
        k(  145) = (   3.1512675  -2.7405285  -0.2500000), wk =   0.0039062
        k(  146) = (   2.3684089  -3.1944085  -0.1250000), wk =   0.0039062
        k(  147) = (   1.5855504  -2.7347791   0.0000000), wk =   0.0039062
        k(  148) = (   0.8026918  -3.1886591   0.1250000), wk =   0.0039062
        k(  149) = (   0.0198333  -3.6425392   0.2500000), wk =   0.0039062
        k(  150) = (  -0.7630253  -4.0964192   0.3750000), wk =   0.0039062
        k(  151) = (   4.7169845  -0.9192589  -0.5000000), wk =   0.0039062
        k(  152) = (   3.9341260  -1.3731389  -0.3750000), wk =   0.0039062
        k(  153) = (   3.1512675  -1.8270190  -0.2500000), wk =   0.0039062
        k(  154) = (   2.3684089  -2.2808990  -0.1250000), wk =   0.0039062
        k(  155) = (   1.5855504  -1.8212696   0.0000000), wk =   0.0039062
        k(  156) = (   0.8026918  -2.2751496   0.1250000), wk =   0.0039062
        k(  157) = (   0.0198333  -2.7290297   0.2500000), wk =   0.0039062
        k(  158) = (  -0.7630253  -3.1829097   0.3750000), wk =   0.0039062
        k(  159) = (   4.7169845  -0.0057494  -0.5000000), wk =   0.0039062
        k(  160) = (   3.9341260  -0.4596294  -0.3750000), wk =   0.0039062
        k(  161) = (   3.1512675  -0.9135095  -0.2500000), wk =   0.0039062
        k(  162) = (   2.3684089  -1.3673895  -0.1250000), wk =   0.0039062
        k(  163) = (   2.3783256  -1.3616401   0.0000000), wk =   0.0039062
        k(  164) = (   1.5954670  -1.8155202   0.1250000), wk =   0.0039062
        k(  165) = (   0.8126085  -2.2694002   0.2500000), wk =   0.0039062
        k(  166) = (   0.0297499  -2.7232803   0.3750000), wk =   0.0039062
        k(  167) = (   5.5097597   0.4538800  -0.5000000), wk =   0.0039062
        k(  168) = (   4.7269012   0.0000000  -0.3750000), wk =   0.0039062
        k(  169) = (   3.9440427  -0.4538800  -0.2500000), wk =   0.0039062
        k(  170) = (   3.1611841  -0.9077601  -0.1250000), wk =   0.0039062
        k(  171) = (   2.3783256  -0.4481306   0.0000000), wk =   0.0039062
        k(  172) = (   1.5954670  -0.9020107   0.1250000), wk =   0.0039062
        k(  173) = (   0.8126085  -1.3558907   0.2500000), wk =   0.0039062
        k(  174) = (   0.0297499  -1.8097708   0.3750000), wk =   0.0039062
        k(  175) = (   5.5097597   1.3673895  -0.5000000), wk =   0.0039062
        k(  176) = (   4.7269012   0.9135095  -0.3750000), wk =   0.0039062
        k(  177) = (   3.9440427   0.4596294  -0.2500000), wk =   0.0039062
        k(  178) = (   3.1611841   0.0057494  -0.1250000), wk =   0.0039062
        k(  179) = (   2.3783256   0.4653788   0.0000000), wk =   0.0039062
        k(  180) = (   1.5954670   0.0114988   0.1250000), wk =   0.0039062
        k(  181) = (   0.8126085  -0.4423812   0.2500000), wk =   0.0039062
        k(  182) = (   0.0297499  -0.8962613   0.3750000), wk =   0.0039062
        k(  183) = (   5.5097597   2.2808990  -0.5000000), wk =   0.0039062
        k(  184) = (   4.7269012   1.8270190  -0.3750000), wk =   0.0039062
        k(  185) = (   3.9440427   1.3731389  -0.2500000), wk =   0.0039062
        k(  186) = (   3.1611841   0.9192589  -0.1250000), wk =   0.0039062
        k(  187) = (   2.3783256   1.3788883   0.0000000), wk =   0.0039062
        k(  188) = (   1.5954670   0.9250083   0.1250000), wk =   0.0039062
        k(  189) = (   0.8126085   0.4711282   0.2500000), wk =   0.0039062
        k(  190) = (   0.0297499   0.0172482   0.3750000), wk =   0.0039062
        k(  191) = (   5.5097597   3.1944085  -0.5000000), wk =   0.0039062
        k(  192) = (   4.7269012   2.7405285  -0.3750000), wk =   0.0039062
        k(  193) = (   3.9440427   2.2866484  -0.2500000), wk =   0.0039062
        k(  194) = (   3.1611841   1.8327684  -0.1250000), wk =   0.0039062
        k(  195) = (   2.3783256  -5.0156781   0.0000000), wk =   0.0039062
        k(  196) = (   1.5954670  -5.4695582   0.1250000), wk =   0.0039062
        k(  197) = (   0.8126085  -5.9234382   0.2500000), wk =   0.0039062
        k(  198) = (   0.0297499  -6.3773183   0.3750000), wk =   0.0039062
        k(  199) = (   5.5097597  -3.2001579  -0.5000000), wk =   0.0039062
        k(  200) = (   4.7269012  -3.6540380  -0.3750000), wk =   0.0039062
        k(  201) = (   3.9440427  -4.1079180  -0.2500000), wk =   0.0039062
        k(  202) = (   3.1611841  -4.5617981  -0.1250000), wk =   0.0039062
        k(  203) = (   2.3783256  -4.1021686   0.0000000), wk =   0.0039062
        k(  204) = (   1.5954670  -4.5560487   0.1250000), wk =   0.0039062
        k(  205) = (   0.8126085  -5.0099287   0.2500000), wk =   0.0039062
        k(  206) = (   0.0297499  -5.4638088   0.3750000), wk =   0.0039062
        k(  207) = (   5.5097597  -2.2866484  -0.5000000), wk =   0.0039062
        k(  208) = (   4.7269012  -2.7405285  -0.3750000), wk =   0.0039062
        k(  209) = (   3.9440427  -3.1944085  -0.2500000), wk =   0.0039062
        k(  210) = (   3.1611841  -3.6482886  -0.1250000), wk =   0.0039062
        k(  211) = (   2.3783256  -3.1886591   0.0000000), wk =   0.0039062
        k(  212) = (   1.5954670  -3.6425392   0.1250000), wk =   0.0039062
        k(  213) = (   0.8126085  -4.0964192   0.2500000), wk =   0.0039062
        k(  214) = (   0.0297499  -4.5502993   0.3750000), wk =   0.0039062
        k(  215) = (   5.5097597  -1.3731389  -0.5000000), wk =   0.0039062
        k(  216) = (   4.7269012  -1.8270190  -0.3750000), wk =   0.0039062
        k(  217) = (   3.9440427  -2.2808990  -0.2500000), wk =   0.0039062
        k(  218) = (   3.1611841  -2.7347791  -0.1250000), wk =   0.0039062
        k(  219) = (   2.3783256  -2.2751496   0.0000000), wk =   0.0039062
        k(  220) = (   1.5954670  -2.7290297   0.1250000), wk =   0.0039062
        k(  221) = (   0.8126085  -3.1829097   0.2500000), wk =   0.0039062
        k(  222) = (   0.0297499  -3.6367898   0.3750000), wk =   0.0039062
        k(  223) = (   5.5097597  -0.4596294  -0.5000000), wk =   0.0039062
        k(  224) = (   4.7269012  -0.9135095  -0.3750000), wk =   0.0039062
        k(  225) = (   3.9440427  -1.3673895  -0.2500000), wk =   0.0039062
        k(  226) = (   3.1611841  -1.8212696  -0.1250000), wk =   0.0039062
        k(  227) = (  -3.1711008   1.8155202   0.0000000), wk =   0.0019531
        k(  228) = (  -3.9539593   1.3616401   0.1250000), wk =   0.0039062
        k(  229) = (  -4.7368178   0.9077601   0.2500000), wk =   0.0039062
        k(  230) = (  -5.5196764   0.4538800   0.3750000), wk =   0.0039062
        k(  231) = (  -0.0396666   3.6310404  -0.5000000), wk =   0.0019531
        k(  232) = (  -3.1711008   2.7290297   0.0000000), wk =   0.0039062
        k(  233) = (  -3.9539593   2.2751496   0.1250000), wk =   0.0039062
        k(  234) = (  -4.7368178   1.8212696   0.2500000), wk =   0.0039062
        k(  235) = (  -5.5196764   1.3673895   0.3750000), wk =   0.0039062
        k(  236) = (  -0.0396666   4.5445499  -0.5000000), wk =   0.0039062
        k(  237) = (  -0.8225251   4.0906698  -0.3750000), wk =   0.0039062
        k(  238) = (  -1.6053837   3.6367898  -0.2500000), wk =   0.0039062
        k(  239) = (  -2.3882422   3.1829097  -0.1250000), wk =   0.0039062
        k(  240) = (  -3.1711008   3.6425392   0.0000000), wk =   0.0039062
        k(  241) = (  -3.9539593   3.1886591   0.1250000), wk =   0.0039062
        k(  242) = (  -4.7368178   2.7347791   0.2500000), wk =   0.0039062
        k(  243) = (  -5.5196764   2.2808990   0.3750000), wk =   0.0039062
        k(  244) = (  -0.0396666   5.4580594  -0.5000000), wk =   0.0039062
        k(  245) = (  -0.8225251   5.0041793  -0.3750000), wk =   0.0039062
        k(  246) = (  -1.6053837   4.5502993  -0.2500000), wk =   0.0039062
        k(  247) = (  -2.3882422   4.0964192  -0.1250000), wk =   0.0039062
        k(  248) = (  -3.1711008   4.5560487   0.0000000), wk =   0.0039062
        k(  249) = (  -3.9539593   4.1021686   0.1250000), wk =   0.0039062
        k(  250) = (  -4.7368178   3.6482886   0.2500000), wk =   0.0039062
        k(  251) = (  -5.5196764   3.1944085   0.3750000), wk =   0.0039062
        k(  252) = (  -0.0396666   6.3715689  -0.5000000), wk =   0.0039062
        k(  253) = (  -0.8225251   5.9176888  -0.3750000), wk =   0.0039062
        k(  254) = (  -1.6053837   5.4638088  -0.2500000), wk =   0.0039062
        k(  255) = (  -2.3882422   5.0099287  -0.1250000), wk =   0.0039062
        k(  256) = (  -3.1711008  -1.8385178   0.0000000), wk =   0.0019531
        k(  257) = (  -3.9539593  -2.2923978   0.1250000), wk =   0.0039062
        k(  258) = (  -4.7368178  -2.7462779   0.2500000), wk =   0.0039062
        k(  259) = (  -5.5196764  -3.2001579   0.3750000), wk =   0.0039062
        k(  260) = (  -0.0396666  -0.0229976  -0.5000000), wk =   0.0019531

                       cryst. coord.
        k(    1) = (   0.0000000   0.0000000   0.0000000), wk =   0.0019531
        k(    2) = (   0.0000000   0.0000000   0.1250000), wk =   0.0039062
        k(    3) = (   0.0000000   0.0000000   0.2500000), wk =   0.0039062
        k(    4) = (   0.0000000   0.0000000   0.3750000), wk =   0.0039062
        k(    5) = (   0.0000000   0.0000000  -0.5000000), wk =   0.0019531
        k(    6) = (   0.0000000   0.1250000   0.0000000), wk =   0.0039062
        k(    7) = (   0.0000000   0.1250000   0.1250000), wk =   0.0039062
        k(    8) = (   0.0000000   0.1250000   0.2500000), wk =   0.0039062
        k(    9) = (   0.0000000   0.1250000   0.3750000), wk =   0.0039062
        k(   10) = (   0.0000000   0.1250000  -0.5000000), wk =   0.0039062
        k(   11) = (  -0.0000000   0.1250000  -0.3750000), wk =   0.0039062
        k(   12) = (   0.0000000   0.1250000  -0.2500000), wk =   0.0039062
        k(   13) = (   0.0000000   0.1250000  -0.1250000), wk =   0.0039062
        k(   14) = (   0.0000000   0.2500000   0.0000000), wk =   0.0039062
        k(   15) = (   0.0000000   0.2500000   0.1250000), wk =   0.0039062
        k(   16) = (   0.0000000   0.2500000   0.2500000), wk =   0.0039062
        k(   17) = (   0.0000000   0.2500000   0.3750000), wk =   0.0039062
        k(   18) = (   0.0000000   0.2500000  -0.5000000), wk =   0.0039062
        k(   19) = (  -0.0000000   0.2500000  -0.3750000), wk =   0.0039062
        k(   20) = (   0.0000000   0.2500000  -0.2500000), wk =   0.0039062
        k(   21) = (   0.0000000   0.2500000  -0.1250000), wk =   0.0039062
        k(   22) = (   0.0000000   0.3750000   0.0000000), wk =   0.0039062
        k(   23) = (   0.0000000   0.3750000   0.1250000), wk =   0.0039062
        k(   24) = (   0.0000000   0.3750000   0.2500000), wk =   0.0039062
        k(   25) = (   0.0000000   0.3750000   0.3750000), wk =   0.0039062
        k(   26) = (   0.0000000   0.3750000  -0.5000000), wk =   0.0039062
        k(   27) = (  -0.0000000   0.3750000  -0.3750000), wk =   0.0039062
        k(   28) = (   0.0000000   0.3750000  -0.2500000), wk =   0.0039062
        k(   29) = (   0.0000000   0.3750000  -0.1250000), wk =   0.0039062
        k(   30) = (   0.0000000  -0.5000000   0.0000000), wk =   0.0019531
        k(   31) = (   0.0000000  -0.5000000   0.1250000), wk =   0.0039062
        k(   32) = (   0.0000000  -0.5000000   0.2500000), wk =   0.0039062
        k(   33) = (   0.0000000  -0.5000000   0.3750000), wk =   0.0039062
        k(   34) = (   0.0000000  -0.5000000  -0.5000000), wk =   0.0019531
        k(   35) = (   0.1250000   0.0000000   0.0000000), wk =   0.0039062
        k(   36) = (   0.1250000   0.0000000   0.1250000), wk =   0.0039062
        k(   37) = (   0.1250000   0.0000000   0.2500000), wk =   0.0039062
        k(   38) = (   0.1250000   0.0000000   0.3750000), wk =   0.0039062
        k(   39) = (   0.1250000   0.0000000  -0.5000000), wk =   0.0039062
        k(   40) = (   0.1250000  -0.0000000  -0.3750000), wk =   0.0039062
        k(   41) = (   0.1250000  -0.0000000  -0.2500000), wk =   0.0039062
        k(   42) = (   0.1250000  -0.0000000  -0.1250000), wk =   0.0039062
        k(   43) = (   0.1250000   0.1250000   0.0000000), wk =   0.0039062
        k(   44) = (   0.1250000   0.1250000   0.1250000), wk =   0.0039062
        k(   45) = (   0.1250000   0.1250000   0.2500000), wk =   0.0039062
        k(   46) = (   0.1250000   0.1250000   0.3750000), wk =   0.0039062
        k(   47) = (   0.1250000   0.1250000  -0.5000000), wk =   0.0039062
        k(   48) = (   0.1250000   0.1250000  -0.3750000), wk =   0.0039062
        k(   49) = (   0.1250000   0.1250000  -0.2500000), wk =   0.0039062
        k(   50) = (   0.1250000   0.1250000  -0.1250000), wk =   0.0039062
        k(   51) = (   0.1250000   0.2500000   0.0000000), wk =   0.0039062
        k(   52) = (   0.1250000   0.2500000   0.1250000), wk =   0.0039062
        k(   53) = (   0.1250000   0.2500000   0.2500000), wk =   0.0039062
        k(   54) = (   0.1250000   0.2500000   0.3750000), wk =   0.0039062
        k(   55) = (   0.1250000   0.2500000  -0.5000000), wk =   0.0039062
        k(   56) = (   0.1250000   0.2500000  -0.3750000), wk =   0.0039062
        k(   57) = (   0.1250000   0.2500000  -0.2500000), wk =   0.0039062
        k(   58) = (   0.1250000   0.2500000  -0.1250000), wk =   0.0039062
        k(   59) = (   0.1250000   0.3750000   0.0000000), wk =   0.0039062
        k(   60) = (   0.1250000   0.3750000   0.1250000), wk =   0.0039062
        k(   61) = (   0.1250000   0.3750000   0.2500000), wk =   0.0039062
        k(   62) = (   0.1250000   0.3750000   0.3750000), wk =   0.0039062
        k(   63) = (   0.1250000   0.3750000  -0.5000000), wk =   0.0039062
        k(   64) = (   0.1250000   0.3750000  -0.3750000), wk =   0.0039062
        k(   65) = (   0.1250000   0.3750000  -0.2500000), wk =   0.0039062
        k(   66) = (   0.1250000   0.3750000  -0.1250000), wk =   0.0039062
        k(   67) = (   0.1250000  -0.5000000   0.0000000), wk =   0.0039062
        k(   68) = (   0.1250000  -0.5000000   0.1250000), wk =   0.0039062
        k(   69) = (   0.1250000  -0.5000000   0.2500000), wk =   0.0039062
        k(   70) = (   0.1250000  -0.5000000   0.3750000), wk =   0.0039062
        k(   71) = (   0.1250000  -0.5000000  -0.5000000), wk =   0.0039062
        k(   72) = (   0.1250000  -0.5000000  -0.3750000), wk =   0.0039062
        k(   73) = (   0.1250000  -0.5000000  -0.2500000), wk =   0.0039062
        k(   74) = (   0.1250000  -0.5000000  -0.1250000), wk =   0.0039062
        k(   75) = (   0.1250000  -0.3750000   0.0000000), wk =   0.0039062
        k(   76) = (   0.1250000  -0.3750000   0.1250000), wk =   0.0039062
        k(   77) = (   0.1250000  -0.3750000   0.2500000), wk =   0.0039062
        k(   78) = (   0.1250000  -0.3750000   0.3750000), wk =   0.0039062
        k(   79) = (   0.1250000  -0.3750000  -0.5000000), wk =   0.0039062
        k(   80) = (   0.1250000  -0.3750000  -0.3750000), wk =   0.0039062
        k(   81) = (   0.1250000  -0.3750000  -0.2500000), wk =   0.0039062
        k(   82) = (   0.1250000  -0.3750000  -0.1250000), wk =   0.0039062
        k(   83) = (   0.1250000  -0.2500000   0.0000000), wk =   0.0039062
        k(   84) = (   0.1250000  -0.2500000   0.1250000), wk =   0.0039062
        k(   85) = (   0.1250000  -0.2500000   0.2500000), wk =   0.0039062
        k(   86) = (   0.1250000  -0.2500000   0.3750000), wk =   0.0039062
        k(   87) = (   0.1250000  -0.2500000  -0.5000000), wk =   0.0039062
        k(   88) = (   0.1250000  -0.2500000  -0.3750000), wk =   0.0039062
        k(   89) = (   0.1250000  -0.2500000  -0.2500000), wk =   0.0039062
        k(   90) = (   0.1250000  -0.2500000  -0.1250000), wk =   0.0039062
        k(   91) = (   0.1250000  -0.1250000   0.0000000), wk =   0.0039062
        k(   92) = (   0.1250000  -0.1250000   0.1250000), wk =   0.0039062
        k(   93) = (   0.1250000  -0.1250000   0.2500000), wk =   0.0039062
        k(   94) = (   0.1250000  -0.1250000   0.3750000), wk =   0.0039062
        k(   95) = (   0.1250000  -0.1250000  -0.5000000), wk =   0.0039062
        k(   96) = (   0.1250000  -0.1250000  -0.3750000), wk =   0.0039062
        k(   97) = (   0.1250000  -0.1250000  -0.2500000), wk =   0.0039062
        k(   98) = (   0.1250000  -0.1250000  -0.1250000), wk =   0.0039062
        k(   99) = (   0.2500000   0.0000000   0.0000000), wk =   0.0039062
        k(  100) = (   0.2500000   0.0000000   0.1250000), wk =   0.0039062
        k(  101) = (   0.2500000   0.0000000   0.2500000), wk =   0.0039062
        k(  102) = (   0.2500000   0.0000000   0.3750000), wk =   0.0039062
        k(  103) = (   0.2500000  -0.0000000  -0.5000000), wk =   0.0039062
        k(  104) = (   0.2500000   0.0000000  -0.3750000), wk =   0.0039062
        k(  105) = (   0.2500000  -0.0000000  -0.2500000), wk =   0.0039062
        k(  106) = (   0.2500000  -0.0000000  -0.1250000), wk =   0.0039062
        k(  107) = (   0.2500000   0.1250000   0.0000000), wk =   0.0039062
        k(  108) = (   0.2500000   0.1250000   0.1250000), wk =   0.0039062
        k(  109) = (   0.2500000   0.1250000   0.2500000), wk =   0.0039062
        k(  110) = (   0.2500000   0.1250000   0.3750000), wk =   0.0039062
        k(  111) = (   0.2500000   0.1250000  -0.5000000), wk =   0.0039062
        k(  112) = (   0.2500000   0.1250000  -0.3750000), wk =   0.0039062
        k(  113) = (   0.2500000   0.1250000  -0.2500000), wk =   0.0039062
        k(  114) = (   0.2500000   0.1250000  -0.1250000), wk =   0.0039062
        k(  115) = (   0.2500000   0.2500000   0.0000000), wk =   0.0039062
        k(  116) = (   0.2500000   0.2500000   0.1250000), wk =   0.0039062
        k(  117) = (   0.2500000   0.2500000   0.2500000), wk =   0.0039062
        k(  118) = (   0.2500000   0.2500000   0.3750000), wk =   0.0039062
        k(  119) = (   0.2500000   0.2500000  -0.5000000), wk =   0.0039062
        k(  120) = (   0.2500000   0.2500000  -0.3750000), wk =   0.0039062
        k(  121) = (   0.2500000   0.2500000  -0.2500000), wk =   0.0039062
        k(  122) = (   0.2500000   0.2500000  -0.1250000), wk =   0.0039062
        k(  123) = (   0.2500000   0.3750000   0.0000000), wk =   0.0039062
        k(  124) = (   0.2500000   0.3750000   0.1250000), wk =   0.0039062
        k(  125) = (   0.2500000   0.3750000   0.2500000), wk =   0.0039062
        k(  126) = (   0.2500000   0.3750000   0.3750000), wk =   0.0039062
        k(  127) = (   0.2500000   0.3750000  -0.5000000), wk =   0.0039062
        k(  128) = (   0.2500000   0.3750000  -0.3750000), wk =   0.0039062
        k(  129) = (   0.2500000   0.3750000  -0.2500000), wk =   0.0039062
        k(  130) = (   0.2500000   0.3750000  -0.1250000), wk =   0.0039062
        k(  131) = (   0.2500000  -0.5000000   0.0000000), wk =   0.0039062
        k(  132) = (   0.2500000  -0.5000000   0.1250000), wk =   0.0039062
        k(  133) = (   0.2500000  -0.5000000   0.2500000), wk =   0.0039062
        k(  134) = (   0.2500000  -0.5000000   0.3750000), wk =   0.0039062
        k(  135) = (   0.2500000  -0.5000000  -0.5000000), wk =   0.0039062
        k(  136) = (   0.2500000  -0.5000000  -0.3750000), wk =   0.0039062
        k(  137) = (   0.2500000  -0.5000000  -0.2500000), wk =   0.0039062
        k(  138) = (   0.2500000  -0.5000000  -0.1250000), wk =   0.0039062
        k(  139) = (   0.2500000  -0.3750000   0.0000000), wk =   0.0039062
        k(  140) = (   0.2500000  -0.3750000   0.1250000), wk =   0.0039062
        k(  141) = (   0.2500000  -0.3750000   0.2500000), wk =   0.0039062
        k(  142) = (   0.2500000  -0.3750000   0.3750000), wk =   0.0039062
        k(  143) = (   0.2500000  -0.3750000  -0.5000000), wk =   0.0039062
        k(  144) = (   0.2500000  -0.3750000  -0.3750000), wk =   0.0039062
        k(  145) = (   0.2500000  -0.3750000  -0.2500000), wk =   0.0039062
        k(  146) = (   0.2500000  -0.3750000  -0.1250000), wk =   0.0039062
        k(  147) = (   0.2500000  -0.2500000   0.0000000), wk =   0.0039062
        k(  148) = (   0.2500000  -0.2500000   0.1250000), wk =   0.0039062
        k(  149) = (   0.2500000  -0.2500000   0.2500000), wk =   0.0039062
        k(  150) = (   0.2500000  -0.2500000   0.3750000), wk =   0.0039062
        k(  151) = (   0.2500000  -0.2500000  -0.5000000), wk =   0.0039062
        k(  152) = (   0.2500000  -0.2500000  -0.3750000), wk =   0.0039062
        k(  153) = (   0.2500000  -0.2500000  -0.2500000), wk =   0.0039062
        k(  154) = (   0.2500000  -0.2500000  -0.1250000), wk =   0.0039062
        k(  155) = (   0.2500000  -0.1250000   0.0000000), wk =   0.0039062
        k(  156) = (   0.2500000  -0.1250000   0.1250000), wk =   0.0039062
        k(  157) = (   0.2500000  -0.1250000   0.2500000), wk =   0.0039062
        k(  158) = (   0.2500000  -0.1250000   0.3750000), wk =   0.0039062
        k(  159) = (   0.2500000  -0.1250000  -0.5000000), wk =   0.0039062
        k(  160) = (   0.2500000  -0.1250000  -0.3750000), wk =   0.0039062
        k(  161) = (   0.2500000  -0.1250000  -0.2500000), wk =   0.0039062
        k(  162) = (   0.2500000  -0.1250000  -0.1250000), wk =   0.0039062
        k(  163) = (   0.3750000   0.0000000   0.0000000), wk =   0.0039062
        k(  164) = (   0.3750000   0.0000000   0.1250000), wk =   0.0039062
        k(  165) = (   0.3750000   0.0000000   0.2500000), wk =   0.0039062
        k(  166) = (   0.3750000   0.0000000   0.3750000), wk =   0.0039062
        k(  167) = (   0.3750000   0.0000000  -0.5000000), wk =   0.0039062
        k(  168) = (   0.3750000  -0.0000000  -0.3750000), wk =   0.0039062
        k(  169) = (   0.3750000   0.0000000  -0.2500000), wk =   0.0039062
        k(  170) = (   0.3750000   0.0000000  -0.1250000), wk =   0.0039062
        k(  171) = (   0.3750000   0.1250000   0.0000000), wk =   0.0039062
        k(  172) = (   0.3750000   0.1250000   0.1250000), wk =   0.0039062
        k(  173) = (   0.3750000   0.1250000   0.2500000), wk =   0.0039062
        k(  174) = (   0.3750000   0.1250000   0.3750000), wk =   0.0039062
        k(  175) = (   0.3750000   0.1250000  -0.5000000), wk =   0.0039062
        k(  176) = (   0.3750000   0.1250000  -0.3750000), wk =   0.0039062
        k(  177) = (   0.3750000   0.1250000  -0.2500000), wk =   0.0039062
        k(  178) = (   0.3750000   0.1250000  -0.1250000), wk =   0.0039062
        k(  179) = (   0.3750000   0.2500000   0.0000000), wk =   0.0039062
        k(  180) = (   0.3750000   0.2500000   0.1250000), wk =   0.0039062
        k(  181) = (   0.3750000   0.2500000   0.2500000), wk =   0.0039062
        k(  182) = (   0.3750000   0.2500000   0.3750000), wk =   0.0039062
        k(  183) = (   0.3750000   0.2500000  -0.5000000), wk =   0.0039062
        k(  184) = (   0.3750000   0.2500000  -0.3750000), wk =   0.0039062
        k(  185) = (   0.3750000   0.2500000  -0.2500000), wk =   0.0039062
        k(  186) = (   0.3750000   0.2500000  -0.1250000), wk =   0.0039062
        k(  187) = (   0.3750000   0.3750000   0.0000000), wk =   0.0039062
        k(  188) = (   0.3750000   0.3750000   0.1250000), wk =   0.0039062
        k(  189) = (   0.3750000   0.3750000   0.2500000), wk =   0.0039062
        k(  190) = (   0.3750000   0.3750000   0.3750000), wk =   0.0039062
        k(  191) = (   0.3750000   0.3750000  -0.5000000), wk =   0.0039062
        k(  192) = (   0.3750000   0.3750000  -0.3750000), wk =   0.0039062
        k(  193) = (   0.3750000   0.3750000  -0.2500000), wk =   0.0039062
        k(  194) = (   0.3750000   0.3750000  -0.1250000), wk =   0.0039062
        k(  195) = (   0.3750000  -0.5000000   0.0000000), wk =   0.0039062
        k(  196) = (   0.3750000  -0.5000000   0.1250000), wk =   0.0039062
        k(  197) = (   0.3750000  -0.5000000   0.2500000), wk =   0.0039062
        k(  198) = (   0.3750000  -0.5000000   0.3750000), wk =   0.0039062
        k(  199) = (   0.3750000  -0.5000000  -0.5000000), wk =   0.0039062
        k(  200) = (   0.3750000  -0.5000000  -0.3750000), wk =   0.0039062
        k(  201) = (   0.3750000  -0.5000000  -0.2500000), wk =   0.0039062
        k(  202) = (   0.3750000  -0.5000000  -0.1250000), wk =   0.0039062
        k(  203) = (   0.3750000  -0.3750000   0.0000000), wk =   0.0039062
        k(  204) = (   0.3750000  -0.3750000   0.1250000), wk =   0.0039062
        k(  205) = (   0.3750000  -0.3750000   0.2500000), wk =   0.0039062
        k(  206) = (   0.3750000  -0.3750000   0.3750000), wk =   0.0039062
        k(  207) = (   0.3750000  -0.3750000  -0.5000000), wk =   0.0039062
        k(  208) = (   0.3750000  -0.3750000  -0.3750000), wk =   0.0039062
        k(  209) = (   0.3750000  -0.3750000  -0.2500000), wk =   0.0039062
        k(  210) = (   0.3750000  -0.3750000  -0.1250000), wk =   0.0039062
        k(  211) = (   0.3750000  -0.2500000   0.0000000), wk =   0.0039062
        k(  212) = (   0.3750000  -0.2500000   0.1250000), wk =   0.0039062
        k(  213) = (   0.3750000  -0.2500000   0.2500000), wk =   0.0039062
        k(  214) = (   0.3750000  -0.2500000   0.3750000), wk =   0.0039062
        k(  215) = (   0.3750000  -0.2500000  -0.5000000), wk =   0.0039062
        k(  216) = (   0.3750000  -0.2500000  -0.3750000), wk =   0.0039062
        k(  217) = (   0.3750000  -0.2500000  -0.2500000), wk =   0.0039062
        k(  218) = (   0.3750000  -0.2500000  -0.1250000), wk =   0.0039062
        k(  219) = (   0.3750000  -0.1250000   0.0000000), wk =   0.0039062
        k(  220) = (   0.3750000  -0.1250000   0.1250000), wk =   0.0039062
        k(  221) = (   0.3750000  -0.1250000   0.2500000), wk =   0.0039062
        k(  222) = (   0.3750000  -0.1250000   0.3750000), wk =   0.0039062
        k(  223) = (   0.3750000  -0.1250000  -0.5000000), wk =   0.0039062
        k(  224) = (   0.3750000  -0.1250000  -0.3750000), wk =   0.0039062
        k(  225) = (   0.3750000  -0.1250000  -0.2500000), wk =   0.0039062
        k(  226) = (   0.3750000  -0.1250000  -0.1250000), wk =   0.0039062
        k(  227) = (  -0.5000000   0.0000000   0.0000000), wk =   0.0019531
        k(  228) = (  -0.5000000   0.0000000   0.1250000), wk =   0.0039062
        k(  229) = (  -0.5000000   0.0000000   0.2500000), wk =   0.0039062
        k(  230) = (  -0.5000000   0.0000000   0.3750000), wk =   0.0039062
        k(  231) = (  -0.5000000  -0.0000000  -0.5000000), wk =   0.0019531
        k(  232) = (  -0.5000000   0.1250000   0.0000000), wk =   0.0039062
        k(  233) = (  -0.5000000   0.1250000   0.1250000), wk =   0.0039062
        k(  234) = (  -0.5000000   0.1250000   0.2500000), wk =   0.0039062
        k(  235) = (  -0.5000000   0.1250000   0.3750000), wk =   0.0039062
        k(  236) = (  -0.5000000   0.1250000  -0.5000000), wk =   0.0039062
        k(  237) = (  -0.5000000   0.1250000  -0.3750000), wk =   0.0039062
        k(  238) = (  -0.5000000   0.1250000  -0.2500000), wk =   0.0039062
        k(  239) = (  -0.5000000   0.1250000  -0.1250000), wk =   0.0039062
        k(  240) = (  -0.5000000   0.2500000   0.0000000), wk =   0.0039062
        k(  241) = (  -0.5000000   0.2500000   0.1250000), wk =   0.0039062
        k(  242) = (  -0.5000000   0.2500000   0.2500000), wk =   0.0039062
        k(  243) = (  -0.5000000   0.2500000   0.3750000), wk =   0.0039062
        k(  244) = (  -0.5000000   0.2500000  -0.5000000), wk =   0.0039062
        k(  245) = (  -0.5000000   0.2500000  -0.3750000), wk =   0.0039062
        k(  246) = (  -0.5000000   0.2500000  -0.2500000), wk =   0.0039062
        k(  247) = (  -0.5000000   0.2500000  -0.1250000), wk =   0.0039062
        k(  248) = (  -0.5000000   0.3750000   0.0000000), wk =   0.0039062
        k(  249) = (  -0.5000000   0.3750000   0.1250000), wk =   0.0039062
        k(  250) = (  -0.5000000   0.3750000   0.2500000), wk =   0.0039062
        k(  251) = (  -0.5000000   0.3750000   0.3750000), wk =   0.0039062
        k(  252) = (  -0.5000000   0.3750000  -0.5000000), wk =   0.0039062
        k(  253) = (  -0.5000000   0.3750000  -0.3750000), wk =   0.0039062
        k(  254) = (  -0.5000000   0.3750000  -0.2500000), wk =   0.0039062
        k(  255) = (  -0.5000000   0.3750000  -0.1250000), wk =   0.0039062
        k(  256) = (  -0.5000000  -0.5000000   0.0000000), wk =   0.0019531
        k(  257) = (  -0.5000000  -0.5000000   0.1250000), wk =   0.0039062
        k(  258) = (  -0.5000000  -0.5000000   0.2500000), wk =   0.0039062
        k(  259) = (  -0.5000000  -0.5000000   0.3750000), wk =   0.0039062
        k(  260) = (  -0.5000000  -0.5000000  -0.5000000), wk =   0.0019531

     Dense  grid:   187971 G-vectors     FFT dimensions: ( 256, 256, 256)

     Dynamical RAM for                 wfc:       1.12 MB

     Dynamical RAM for     wfc (w. buffer):       1.12 MB

     Dynamical RAM for           str. fact:       0.18 MB

     Dynamical RAM for           local pot:       0.00 MB

     Dynamical RAM for          nlocal pot:       1.41 MB

     Dynamical RAM for                qrad:       4.98 MB

     Dynamical RAM for          rho,v,vnew:      12.27 MB

     Dynamical RAM for           G-vectors:       0.19 MB

     Dynamical RAM for          h,s,v(r/c):       1.83 MB

     Dynamical RAM for          <psi|beta>:       0.77 MB

     Dynamical RAM for                 psi:       2.24 MB

     Dynamical RAM for                hpsi:       2.24 MB

     Dynamical RAM for                spsi:       2.24 MB

     Dynamical RAM for      wfcinit/wfcrot:       3.16 MB

     Dynamical RAM for           addusdens:       8.74 MB

     Estimated static dynamical RAM per process >      32.37 MB

     Estimated max dynamical RAM per process >      41.69 MB

     Estimated total dynamical RAM >       2.61 GB

     Check: negative core charge=   -0.000015
     Generating pointlists ...
     new r_m :   0.0448 (alat units)  2.3181 (a.u.) for type    1
     new r_m :   0.0448 (alat units)  2.3181 (a.u.) for type    2
     new r_m :   0.0456 (alat units)  2.3625 (a.u.) for type    3
     new r_m :   0.0448 (alat units)  2.3181 (a.u.) for type    4

     The potential is recalculated from file :
     ./tmp/MnBi2Te4.save/charge-density

     Starting wfcs are   88 randomized atomic wfcs +  112 random wfcs
     Checking if some PAW data can be deallocated... 
       PAW data deallocated on   59 nodes for type:  1
       PAW data deallocated on   59 nodes for type:  2
       PAW data deallocated on   44 nodes for type:  3
       PAW data deallocated on   30 nodes for type:  4

     Band Structure Calculation
     Davidson diagonalization with overlap

     Computing kpt #:     1  of   520
     total cpu time spent up to now is       97.7 secs

     Computing kpt #:     2  of   520
     total cpu time spent up to now is      157.8 secs

     Computing kpt #:     3  of   520
     total cpu time spent up to now is      201.0 secs

     Computing kpt #:     4  of   520
     total cpu time spent up to now is      240.9 secs

     Computing kpt #:     5  of   520
     total cpu time spent up to now is      278.2 secs

     Computing kpt #:     6  of   520
     total cpu time spent up to now is      319.6 secs

     Computing kpt #:     7  of   520
     total cpu time spent up to now is      361.5 secs

     Computing kpt #:     8  of   520
     total cpu time spent up to now is      402.4 secs

     Computing kpt #:     9  of   520
     total cpu time spent up to now is      442.3 secs

     Computing kpt #:    10  of   520
     total cpu time spent up to now is      489.8 secs

     Computing kpt #:    11  of   520
     total cpu time spent up to now is      536.9 secs

     Computing kpt #:    12  of   520
     total cpu time spent up to now is      577.0 secs

     Computing kpt #:    13  of   520
     c_bands:  1 eigenvalues not converged
     total cpu time spent up to now is      624.6 secs

     Computing kpt #:    14  of   520
     total cpu time spent up to now is      665.1 secs

     Computing kpt #:    15  of   520
     total cpu time spent up to now is      709.3 secs

     Computing kpt #:    16  of   520
     c_bands:  1 eigenvalues not converged
     total cpu time spent up to now is      755.7 secs

     Computing kpt #:    17  of   520
     total cpu time spent up to now is      801.9 secs

     Computing kpt #:    18  of   520
     total cpu time spent up to now is      848.5 secs

     Computing kpt #:    19  of   520
     total cpu time spent up to now is      890.3 secs

     Computing kpt #:    20  of   520
     c_bands:  1 eigenvalues not converged
     total cpu time spent up to now is      936.5 secs

     Computing kpt #:    21  of   520
     total cpu time spent up to now is      976.9 secs

     Computing kpt #:    22  of   520
     total cpu time spent up to now is     1053.3 secs

     Computing kpt #:    23  of   520
     total cpu time spent up to now is     1093.7 secs

     Computing kpt #:    24  of   520
     total cpu time spent up to now is     1133.6 secs

     Computing kpt #:    25  of   520
     total cpu time spent up to now is     1173.5 secs

     Computing kpt #:    26  of   520
     total cpu time spent up to now is     1214.7 secs

     Computing kpt #:    27  of   520
     total cpu time spent up to now is     1258.3 secs

     Computing kpt #:    28  of   520
     total cpu time spent up to now is     1300.0 secs

     Computing kpt #:    29  of   520
     total cpu time spent up to now is     1344.1 secs

     Computing kpt #:    30  of   520
     total cpu time spent up to now is     1381.6 secs

     Computing kpt #:    31  of   520
     total cpu time spent up to now is     1423.4 secs

     Computing kpt #:    32  of   520
     c_bands:  1 eigenvalues not converged
     total cpu time spent up to now is     1470.1 secs

     Computing kpt #:    33  of   520
     total cpu time spent up to now is     1539.2 secs

     Computing kpt #:    34  of   520
     total cpu time spent up to now is     1579.2 secs

     Computing kpt #:    35  of   520
     total cpu time spent up to now is     1620.8 secs

     Computing kpt #:    36  of   520
     total cpu time spent up to now is     1662.5 secs

     Computing kpt #:    37  of   520
     total cpu time spent up to now is     1706.6 secs

     Computing kpt #:    38  of   520
     total cpu time spent up to now is     1845.7 secs

     Computing kpt #:    39  of   520
     c_bands:  1 eigenvalues not converged
     total cpu time spent up to now is     1893.3 secs

     Computing kpt #:    40  of   520
     total cpu time spent up to now is     1940.2 secs

     Computing kpt #:    41  of   520
     total cpu time spent up to now is     1980.5 secs

     Computing kpt #:    42  of   520
     c_bands:  1 eigenvalues not converged
     total cpu time spent up to now is     2028.1 secs

     Computing kpt #:    43  of   520
     total cpu time spent up to now is     2177.3 secs

     Computing kpt #:    44  of   520
     c_bands:  2 eigenvalues not converged
     total cpu time spent up to now is     2447.3 secs

     Computing kpt #:    45  of   520
     total cpu time spent up to now is     2488.4 secs

     Computing kpt #:    46  of   520
     total cpu time spent up to now is     2528.6 secs

     Computing kpt #:    47  of   520
     total cpu time spent up to now is     2568.3 secs

     Computing kpt #:    48  of   520
     total cpu time spent up to now is     2608.9 secs

     Computing kpt #:    49  of   520
     c_bands:  1 eigenvalues not converged
     total cpu time spent up to now is     2655.1 secs

     Computing kpt #:    50  of   520
     total cpu time spent up to now is     2695.5 secs

     Computing kpt #:    51  of   520
     total cpu time spent up to now is     2739.5 secs

     Computing kpt #:    52  of   520
     total cpu time spent up to now is     2781.6 secs

     Computing kpt #:    53  of   520
     total cpu time spent up to now is     2823.8 secs

     Computing kpt #:    54  of   520
     total cpu time spent up to now is     2864.9 secs

     Computing kpt #:    55  of   520
     total cpu time spent up to now is     2905.1 secs

     Computing kpt #:    56  of   520
     total cpu time spent up to now is     2952.2 secs

     Computing kpt #:    57  of   520
     total cpu time spent up to now is     2996.8 secs

     Computing kpt #:    58  of   520
     total cpu time spent up to now is     3037.2 secs

     Computing kpt #:    59  of   520
     total cpu time spent up to now is     3077.1 secs

     Computing kpt #:    60  of   520
     total cpu time spent up to now is     3114.8 secs

     Computing kpt #:    61  of   520
     total cpu time spent up to now is     3171.2 secs

     Computing kpt #:    62  of   520
     total cpu time spent up to now is     3208.7 secs

     Computing kpt #:    63  of   520
     total cpu time spent up to now is     3255.3 secs

     Computing kpt #:    64  of   520
     total cpu time spent up to now is     3299.1 secs

     Computing kpt #:    65  of   520
     total cpu time spent up to now is     3341.0 secs

     Computing kpt #:    66  of   520
     c_bands:  1 eigenvalues not converged
     total cpu time spent up to now is     3387.9 secs

     Computing kpt #:    67  of   520
     total cpu time spent up to now is     3431.9 secs

     Computing kpt #:    68  of   520
     total cpu time spent up to now is     3471.3 secs

     Computing kpt #:    69  of   520
     total cpu time spent up to now is     3512.2 secs

     Computing kpt #:    70  of   520
     total cpu time spent up to now is     3557.7 secs

     Computing kpt #:    71  of   520
     total cpu time spent up to now is     3600.6 secs

     Computing kpt #:    72  of   520
     total cpu time spent up to now is     3641.8 secs

     Computing kpt #:    73  of   520
     total cpu time spent up to now is     3688.6 secs

     Computing kpt #:    74  of   520
     total cpu time spent up to now is     3727.3 secs

     Computing kpt #:    75  of   520
     total cpu time spent up to now is     3768.5 secs

     Computing kpt #:    76  of   520
     total cpu time spent up to now is     3806.5 secs

     Computing kpt #:    77  of   520
     total cpu time spent up to now is     3850.7 secs

     Computing kpt #:    78  of   520
     c_bands:  1 eigenvalues not converged
     total cpu time spent up to now is     3897.3 secs

     Computing kpt #:    79  of   520
     total cpu time spent up to now is     3938.8 secs

     Computing kpt #:    80  of   520
     total cpu time spent up to now is     3976.3 secs

     Computing kpt #:    81  of   520
     total cpu time spent up to now is     4029.2 secs

     Computing kpt #:    82  of   520
     c_bands:  1 eigenvalues not converged
     total cpu time spent up to now is     4076.5 secs

     Computing kpt #:    83  of   520
     total cpu time spent up to now is     4138.3 secs

     Computing kpt #:    84  of   520
     c_bands:  1 eigenvalues not converged
     total cpu time spent up to now is     4184.4 secs

     Computing kpt #:    85  of   520
     total cpu time spent up to now is     4229.0 secs

     Computing kpt #:    86  of   520
     total cpu time spent up to now is     4269.9 secs

     Computing kpt #:    87  of   520
     total cpu time spent up to now is     4314.0 secs

     Computing kpt #:    88  of   520
     c_bands:  1 eigenvalues not converged
     total cpu time spent up to now is     4361.7 secs

     Computing kpt #:    89  of   520
     total cpu time spent up to now is     4401.8 secs

     Computing kpt #:    90  of   520
     total cpu time spent up to now is     4447.6 secs

     Computing kpt #:    91  of   520
     total cpu time spent up to now is     4491.5 secs

     Computing kpt #:    92  of   520
     c_bands:  1 eigenvalues not converged
     total cpu time spent up to now is     4537.7 secs

     Computing kpt #:    93  of   520
     total cpu time spent up to now is     4584.0 secs

     Computing kpt #:    94  of   520
     c_bands:  1 eigenvalues not converged
     total cpu time spent up to now is     4631.4 secs

     Computing kpt #:    95  of   520
     total cpu time spent up to now is     4669.8 secs

     Computing kpt #:    96  of   520
     c_bands:  1 eigenvalues not converged
     total cpu time spent up to now is     4716.4 secs

     Computing kpt #:    97  of   520
     total cpu time spent up to now is     4756.3 secs

     Computing kpt #:    98  of   520
     total cpu time spent up to now is     4796.4 secs

     Computing kpt #:    99  of   520
     total cpu time spent up to now is     4837.0 secs

     Computing kpt #:   100  of   520
     total cpu time spent up to now is     4881.2 secs

     Computing kpt #:   101  of   520
     c_bands:  1 eigenvalues not converged
     total cpu time spent up to now is     4927.1 secs

     Computing kpt #:   102  of   520
     total cpu time spent up to now is     4969.6 secs

     Computing kpt #:   103  of   520
     total cpu time spent up to now is     5015.5 secs

     Computing kpt #:   104  of   520
     total cpu time spent up to now is     5057.2 secs

     Computing kpt #:   105  of   520
     c_bands:  1 eigenvalues not converged
     total cpu time spent up to now is     5103.6 secs

     Computing kpt #:   106  of   520
     total cpu time spent up to now is     5143.2 secs

     Computing kpt #:   107  of   520
     total cpu time spent up to now is     5184.7 secs

     Computing kpt #:   108  of   520
     total cpu time spent up to now is     5226.8 secs

     Computing kpt #:   109  of   520
     total cpu time spent up to now is     5268.1 secs

     Computing kpt #:   110  of   520
     total cpu time spent up to now is     5309.3 secs

     Computing kpt #:   111  of   520
     total cpu time spent up to now is     5349.5 secs

     Computing kpt #:   112  of   520
     total cpu time spent up to now is     5393.6 secs

     Computing kpt #:   113  of   520
     total cpu time spent up to now is     5438.2 secs

     Computing kpt #:   114  of   520
     total cpu time spent up to now is     5481.1 secs

     Computing kpt #:   115  of   520
     total cpu time spent up to now is     5521.7 secs

     Computing kpt #:   116  of   520
     total cpu time spent up to now is     5563.8 secs

     Computing kpt #:   117  of   520
     total cpu time spent up to now is     5605.5 secs

     Computing kpt #:   118  of   520
     total cpu time spent up to now is     5646.8 secs

     Computing kpt #:   119  of   520
     total cpu time spent up to now is     5686.9 secs

     Computing kpt #:   120  of   520
     total cpu time spent up to now is     5727.2 secs

     Computing kpt #:   121  of   520
     total cpu time spent up to now is     5764.6 secs

     Computing kpt #:   122  of   520
     total cpu time spent up to now is     5804.6 secs

     Computing kpt #:   123  of   520
     total cpu time spent up to now is     5847.5 secs

     Computing kpt #:   124  of   520
     total cpu time spent up to now is     5888.8 secs

     Computing kpt #:   125  of   520
     total cpu time spent up to now is     5930.0 secs

     Computing kpt #:   126  of   520
     total cpu time spent up to now is     5971.9 secs

     Computing kpt #:   127  of   520
     total cpu time spent up to now is     6012.8 secs

     Computing kpt #:   128  of   520
     total cpu time spent up to now is     6052.7 secs

     Computing kpt #:   129  of   520
     total cpu time spent up to now is     6096.0 secs

     Computing kpt #:   130  of   520
     total cpu time spent up to now is     6140.4 secs

     Computing kpt #:   131  of   520
     c_bands:  1 eigenvalues not converged
     total cpu time spent up to now is     6187.2 secs

     Computing kpt #:   132  of   520
     total cpu time spent up to now is     6227.9 secs

     Computing kpt #:   133  of   520
     total cpu time spent up to now is     6265.7 secs

     Computing kpt #:   134  of   520
     total cpu time spent up to now is     6304.1 secs

     Computing kpt #:   135  of   520
     total cpu time spent up to now is     6344.0 secs

     Computing kpt #:   136  of   520
     total cpu time spent up to now is     6384.1 secs

     Computing kpt #:   137  of   520
     total cpu time spent up to now is     6424.7 secs

     Computing kpt #:   138  of   520
     total cpu time spent up to now is     6468.6 secs

     Computing kpt #:   139  of   520
     total cpu time spent up to now is     6510.3 secs

     Computing kpt #:   140  of   520
     c_bands:  1 eigenvalues not converged
     total cpu time spent up to now is     6588.4 secs

     Computing kpt #:   141  of   520
     total cpu time spent up to now is     6628.5 secs

     Computing kpt #:   142  of   520
     total cpu time spent up to now is     6688.6 secs

     Computing kpt #:   143  of   520
     total cpu time spent up to now is     6728.7 secs

     Computing kpt #:   144  of   520
     total cpu time spent up to now is     6768.3 secs

     Computing kpt #:   145  of   520
     total cpu time spent up to now is     6809.6 secs

     Computing kpt #:   146  of   520
     total cpu time spent up to now is     6850.9 secs

     Computing kpt #:   147  of   520
     c_bands:  1 eigenvalues not converged
     total cpu time spent up to now is     6897.3 secs

     Computing kpt #:   148  of   520
     total cpu time spent up to now is     6941.9 secs

     Computing kpt #:   149  of   520
     total cpu time spent up to now is     6979.8 secs

     Computing kpt #:   150  of   520
     total cpu time spent up to now is     7024.2 secs

     Computing kpt #:   151  of   520
     total cpu time spent up to now is     7064.6 secs

     Computing kpt #:   152  of   520
     total cpu time spent up to now is     7108.4 secs

     Computing kpt #:   153  of   520
     total cpu time spent up to now is     7289.5 secs

     Computing kpt #:   154  of   520
     total cpu time spent up to now is     7333.5 secs

     Computing kpt #:   155  of   520
     total cpu time spent up to now is     7373.9 secs

     Computing kpt #:   156  of   520
     total cpu time spent up to now is     7414.1 secs

     Computing kpt #:   157  of   520
     total cpu time spent up to now is     7483.2 secs

     Computing kpt #:   158  of   520
     total cpu time spent up to now is     7524.7 secs

     Computing kpt #:   159  of   520
     total cpu time spent up to now is     7569.2 secs

     Computing kpt #:   160  of   520
     total cpu time spent up to now is     7610.6 secs

     Computing kpt #:   161  of   520
     total cpu time spent up to now is     7652.5 secs

     Computing kpt #:   162  of   520
     c_bands:  1 eigenvalues not converged
     total cpu time spent up to now is     7698.5 secs

     Computing kpt #:   163  of   520
     total cpu time spent up to now is     7739.5 secs

     Computing kpt #:   164  of   520
     total cpu time spent up to now is     7779.9 secs

     Computing kpt #:   165  of   520
     total cpu time spent up to now is     7822.3 secs

     Computing kpt #:   166  of   520
     total cpu time spent up to now is     7862.2 secs

     Computing kpt #:   167  of   520
     total cpu time spent up to now is     7903.4 secs

     Computing kpt #:   168  of   520
     total cpu time spent up to now is     7946.6 secs

     Computing kpt #:   169  of   520
     total cpu time spent up to now is     7988.2 secs

     Computing kpt #:   170  of   520
     total cpu time spent up to now is     8035.5 secs

     Computing kpt #:   171  of   520
     total cpu time spent up to now is     8075.9 secs

     Computing kpt #:   172  of   520
     total cpu time spent up to now is     8116.1 secs

     Computing kpt #:   173  of   520
     total cpu time spent up to now is     8242.7 secs

     Computing kpt #:   174  of   520
     c_bands:  1 eigenvalues not converged
     total cpu time spent up to now is     8289.2 secs

     Computing kpt #:   175  of   520
     total cpu time spent up to now is     8330.0 secs

     Computing kpt #:   176  of   520
     c_bands:  1 eigenvalues not converged
     total cpu time spent up to now is     8376.7 secs

     Computing kpt #:   177  of   520
     total cpu time spent up to now is     8417.8 secs

     Computing kpt #:   178  of   520
     c_bands:  1 eigenvalues not converged
     total cpu time spent up to now is     8464.3 secs

     Computing kpt #:   179  of   520
     total cpu time spent up to now is     8504.3 secs

     Computing kpt #:   180  of   520
     total cpu time spent up to now is     8545.3 secs

     Computing kpt #:   181  of   520
     total cpu time spent up to now is     8587.3 secs

     Computing kpt #:   182  of   520
     total cpu time spent up to now is     8629.0 secs

     Computing kpt #:   183  of   520
     total cpu time spent up to now is     8669.7 secs

     Computing kpt #:   184  of   520
     total cpu time spent up to now is     8707.0 secs

     Computing kpt #:   185  of   520
     total cpu time spent up to now is     8789.3 secs

     Computing kpt #:   186  of   520
     total cpu time spent up to now is     8833.7 secs

     Computing kpt #:   187  of   520
     total cpu time spent up to now is     8990.6 secs

     Computing kpt #:   188  of   520
     total cpu time spent up to now is     9295.0 secs

     Computing kpt #:   189  of   520
     total cpu time spent up to now is     9600.8 secs

     Computing kpt #:   190  of   520
     total cpu time spent up to now is     9911.0 secs

     Computing kpt #:   191  of   520
     total cpu time spent up to now is    10184.2 secs

     Computing kpt #:   192  of   520
     total cpu time spent up to now is    10224.7 secs

     Computing kpt #:   193  of   520
     total cpu time spent up to now is    10264.6 secs

     Computing kpt #:   194  of   520
     total cpu time spent up to now is    10305.3 secs

     Computing kpt #:   195  of   520
     total cpu time spent up to now is    10352.6 secs

     Computing kpt #:   196  of   520
     total cpu time spent up to now is    10395.1 secs

     Computing kpt #:   197  of   520
     total cpu time spent up to now is    10436.0 secs

     Computing kpt #:   198  of   520
     total cpu time spent up to now is    10477.3 secs

     Computing kpt #:   199  of   520
     total cpu time spent up to now is    10516.0 secs

     Computing kpt #:   200  of   520
     total cpu time spent up to now is    10556.9 secs

     Computing kpt #:   201  of   520
     total cpu time spent up to now is    10599.5 secs

     Computing kpt #:   202  of   520
     total cpu time spent up to now is    10644.1 secs

     Computing kpt #:   203  of   520
     total cpu time spent up to now is    10688.3 secs

     Computing kpt #:   204  of   520
     total cpu time spent up to now is    10734.8 secs

     Computing kpt #:   205  of   520
     total cpu time spent up to now is    10774.5 secs

     Computing kpt #:   206  of   520
     total cpu time spent up to now is    10814.9 secs

     Computing kpt #:   207  of   520
     total cpu time spent up to now is    10855.6 secs

     Computing kpt #:   208  of   520
     total cpu time spent up to now is    10896.0 secs

     Computing kpt #:   209  of   520
     total cpu time spent up to now is    10935.8 secs

     Computing kpt #:   210  of   520
     c_bands:  1 eigenvalues not converged
     total cpu time spent up to now is    10982.6 secs

     Computing kpt #:   211  of   520
     total cpu time spent up to now is    11024.3 secs

     Computing kpt #:   212  of   520
     total cpu time spent up to now is    11065.4 secs

     Computing kpt #:   213  of   520
     total cpu time spent up to now is    11109.5 secs

     Computing kpt #:   214  of   520
     total cpu time spent up to now is    11149.5 secs

     Computing kpt #:   215  of   520
     total cpu time spent up to now is    11192.3 secs

     Computing kpt #:   216  of   520
     total cpu time spent up to now is    11232.4 secs

     Computing kpt #:   217  of   520
     total cpu time spent up to now is    11272.0 secs

     Computing kpt #:   218  of   520
     c_bands:  1 eigenvalues not converged
     total cpu time spent up to now is    11319.1 secs

     Computing kpt #:   219  of   520
     total cpu time spent up to now is    11408.2 secs

     Computing kpt #:   220  of   520
     c_bands:  2 eigenvalues not converged
     total cpu time spent up to now is    11757.2 secs

     Computing kpt #:   221  of   520
     c_bands:  1 eigenvalues not converged
     total cpu time spent up to now is    12118.6 secs

     Computing kpt #:   222  of   520
     total cpu time spent up to now is    12413.5 secs

     Computing kpt #:   223  of   520
     total cpu time spent up to now is    12721.1 secs

     Computing kpt #:   224  of   520
     c_bands:  1 eigenvalues not converged
     total cpu time spent up to now is    13072.5 secs

     Computing kpt #:   225  of   520
     total cpu time spent up to now is    13420.6 secs

     Computing kpt #:   226  of   520
     total cpu time spent up to now is    13725.1 secs

     Computing kpt #:   227  of   520
     total cpu time spent up to now is    13810.9 secs

     Computing kpt #:   228  of   520
     total cpu time spent up to now is    13855.3 secs

     Computing kpt #:   229  of   520
     c_bands:  1 eigenvalues not converged
     total cpu time spent up to now is    13902.2 secs

     Computing kpt #:   230  of   520
     total cpu time spent up to now is    13949.4 secs

     Computing kpt #:   231  of   520
     total cpu time spent up to now is    13990.1 secs

     Computing kpt #:   232  of   520
     total cpu time spent up to now is    14034.4 secs

     Computing kpt #:   233  of   520
     total cpu time spent up to now is    14073.9 secs

     Computing kpt #:   234  of   520
     total cpu time spent up to now is    14114.4 secs

     Computing kpt #:   235  of   520
     total cpu time spent up to now is    14160.7 secs

     Computing kpt #:   236  of   520
     total cpu time spent up to now is    14200.7 secs

     Computing kpt #:   237  of   520
     total cpu time spent up to now is    14242.3 secs

     Computing kpt #:   238  of   520
     total cpu time spent up to now is    14286.4 secs

     Computing kpt #:   239  of   520
     total cpu time spent up to now is    14325.1 secs

     Computing kpt #:   240  of   520
     c_bands:  1 eigenvalues not converged
     total cpu time spent up to now is    14371.9 secs

     Computing kpt #:   241  of   520
     total cpu time spent up to now is    14412.5 secs

     Computing kpt #:   242  of   520
     total cpu time spent up to now is    14452.5 secs

     Computing kpt #:   243  of   520
     total cpu time spent up to now is    14491.1 secs

     Computing kpt #:   244  of   520
     total cpu time spent up to now is    14648.9 secs

     Computing kpt #:   245  of   520
     total cpu time spent up to now is    14991.3 secs

     Computing kpt #:   246  of   520
     total cpu time spent up to now is    15288.7 secs

     Computing kpt #:   247  of   520
     total cpu time spent up to now is    15616.9 secs

     Computing kpt #:   248  of   520
     total cpu time spent up to now is    15966.4 secs

     Computing kpt #:   249  of   520
     total cpu time spent up to now is    16011.3 secs

     Computing kpt #:   250  of   520
     total cpu time spent up to now is    16050.0 secs

     Computing kpt #:   251  of   520
     total cpu time spent up to now is    16091.8 secs

     Computing kpt #:   252  of   520
     total cpu time spent up to now is    16133.7 secs

     Computing kpt #:   253  of   520
     total cpu time spent up to now is    16174.7 secs

     Computing kpt #:   254  of   520
     total cpu time spent up to now is    16214.6 secs

     Computing kpt #:   255  of   520
     total cpu time spent up to now is    16255.8 secs

     Computing kpt #:   256  of   520
     total cpu time spent up to now is    16296.4 secs

     Computing kpt #:   257  of   520
     total cpu time spent up to now is    16336.6 secs

     Computing kpt #:   258  of   520
     total cpu time spent up to now is    16377.1 secs

     Computing kpt #:   259  of   520
     total cpu time spent up to now is    16419.0 secs

     Computing kpt #:   260  of   520
     total cpu time spent up to now is    16460.3 secs

     Computing kpt #:   261  of   520
     total cpu time spent up to now is    16501.7 secs

     Computing kpt #:   262  of   520
     total cpu time spent up to now is    16540.5 secs

     Computing kpt #:   263  of   520
     total cpu time spent up to now is    16583.5 secs

     Computing kpt #:   264  of   520
     total cpu time spent up to now is    16623.5 secs

     Computing kpt #:   265  of   520
     total cpu time spent up to now is    16663.9 secs

     Computing kpt #:   266  of   520
     total cpu time spent up to now is    16704.9 secs

     Computing kpt #:   267  of   520
     total cpu time spent up to now is    16760.0 secs

     Computing kpt #:   268  of   520
     total cpu time spent up to now is    17061.8 secs

     Computing kpt #:   269  of   520
     total cpu time spent up to now is    17102.5 secs

     Computing kpt #:   270  of   520
     total cpu time spent up to now is    17146.3 secs

     Computing kpt #:   271  of   520
     total cpu time spent up to now is    17188.0 secs

     Computing kpt #:   272  of   520
     total cpu time spent up to now is    17228.4 secs

     Computing kpt #:   273  of   520
     total cpu time spent up to now is    17269.7 secs

     Computing kpt #:   274  of   520
     total cpu time spent up to now is    17309.9 secs

     Computing kpt #:   275  of   520
     total cpu time spent up to now is    17354.3 secs

     Computing kpt #:   276  of   520
     total cpu time spent up to now is    17400.2 secs

     Computing kpt #:   277  of   520
     total cpu time spent up to now is    17443.0 secs

     Computing kpt #:   278  of   520
     c_bands:  1 eigenvalues not converged
     total cpu time spent up to now is    17489.8 secs

     Computing kpt #:   279  of   520
     total cpu time spent up to now is    17690.6 secs

     Computing kpt #:   280  of   520
     c_bands:  1 eigenvalues not converged
     total cpu time spent up to now is    18041.6 secs

     Computing kpt #:   281  of   520
     total cpu time spent up to now is    18338.3 secs

     Computing kpt #:   282  of   520
     total cpu time spent up to now is    18636.5 secs

     Computing kpt #:   283  of   520
     total cpu time spent up to now is    18932.4 secs

     Computing kpt #:   284  of   520
     c_bands:  1 eigenvalues not converged
     total cpu time spent up to now is    19278.1 secs

     Computing kpt #:   285  of   520
     total cpu time spent up to now is    19580.0 secs

     Computing kpt #:   286  of   520
     total cpu time spent up to now is    19933.4 secs

     Computing kpt #:   287  of   520
     total cpu time spent up to now is    20260.7 secs

     Computing kpt #:   288  of   520
     total cpu time spent up to now is    20571.0 secs

     Computing kpt #:   289  of   520
     total cpu time spent up to now is    20882.9 secs

     Computing kpt #:   290  of   520
     total cpu time spent up to now is    20958.5 secs

     Computing kpt #:   291  of   520
     c_bands:  1 eigenvalues not converged
     total cpu time spent up to now is    21006.0 secs

     Computing kpt #:   292  of   520
[...]
     1.0000   1.0000   1.0000   1.0000   1.0000   1.0000   1.0000   1.0000
     1.0000   1.0000   1.0000   1.0000   1.0000   1.0000   1.0000   1.0000
     1.0000   1.0000   1.0000   1.0000   1.0000   1.0000   1.0000   1.0000
     1.0000   1.0000   1.0000   1.0000   1.0000   1.0000   1.0000   1.0000
     1.0000   1.0000   1.0000   1.0000   1.0000   1.0000   1.0000   1.0000
     1.0000   1.0000   1.0002   1.0254   1.0638   0.0000   0.0000   0.0000
     0.0000   0.0000   0.0000   0.0000   0.0000   0.0000   0.0000   0.0000
     0.0000   0.0000   0.0000   0.0000   0.0000   0.0000   0.0000   0.0000
     0.0000   0.0000   0.0000   0.0000   0.0000   0.0000   0.0000   0.0000
     0.0000   0.0000   0.0000   0.0000   0.0000   0.0000   0.0000   0.0000
     0.0000   0.0000   0.0000   0.0000   0.0000   0.0000   0.0000   0.0000
     0.0000   0.0000   0.0000   0.0000   0.0000   0.0000   0.0000   0.0000
     0.0000   0.0000   0.0000   0.0000   0.0000   0.0000   0.0000   0.0000
     0.0000   0.0000   0.0000   0.0000   0.0000   0.0000   0.0000   0.0000
     0.0000   0.0000   0.0000   0.0000   0.0000   0.0000   0.0000   0.0000
     0.0000   0.0000   0.0000   0.0000   0.0000   0.0000   0.0000   0.0000
     0.0000   0.0000   0.0000   0.0000   0.0000   0.0000   0.0000   0.0000
     0.0000   0.0000   0.0000   0.0000   0.0000   0.0000   0.0000   0.0000
     0.0000   0.0000   0.0000   0.0000   0.0000   0.0000   0.0000   0.0000
     0.0000   0.0000   0.0000   0.0000   0.0000   0.0000   0.0000   0.0000
     0.0000   0.0000   0.0000   0.0000   0.0000   0.0000   0.0000   0.0000
     0.0000   0.0000   0.0000   0.0000   0.0000   0.0000   0.0000   0.0000

          k =-3.9540-2.2924 0.1250 ( 23498 PWs)   bands (ev):

   -73.9633 -69.3595 -42.7177 -42.7122 -42.7108 -38.2016 -38.1967 -38.1817
   -15.5779 -15.5779 -15.5771 -15.5770 -15.5629 -15.5629 -15.5605 -15.5605
   -15.5570 -15.5570 -15.5534 -15.5533 -15.5485 -15.5485 -15.5464 -15.5463
   -15.5457 -15.5457 -15.5422 -15.5421  -4.4688  -4.4533  -4.3208  -4.2984
    -3.2154  -3.0937  -3.0125  -2.8739  -2.2343  -2.1993  -1.9956  -1.9842
     2.8318   2.8618   3.1506   3.3250   3.5082   3.7258   4.2547   4.4587
     4.4959   4.6043   4.6168   4.7406   4.7435   4.8324   4.9442   5.0099
     5.1304   5.1779   5.3566   5.4799   5.5945   5.9828   6.0250   6.2421
     6.3169   6.5077   6.7225   7.1063   7.3670   8.4883   8.5933   8.8252
     8.8850   8.9694   9.0682   9.1453   9.3180   9.4585   9.5032   9.7686
     9.8790  10.0825  10.3475  10.7141  10.8073  11.0583  11.4449  11.5891
    11.8158  12.0492  12.5169  13.1702  13.5754  13.8165  14.2172  14.4371
    14.6051  14.7502  14.8857  14.9523  15.2977  15.5303  15.9189  15.9748
    16.0477  16.0690  16.2508  16.3703  16.6025  16.8088  16.8119  16.8859
    16.9672  16.9950  17.0999  17.1848  17.8876  18.2701  18.3134  18.4901
    18.6584  18.8462  18.9163  18.9732  19.2927  19.3389  19.5147  19.6440
    19.8254  19.8857  20.4719  20.4733  20.6921  20.8482  20.9074  20.9922
    21.0493  21.0744  21.1526  21.2966  21.4001  21.4135  21.5205  21.5379
    21.6017  21.6474  21.8286  21.9234  22.1436  22.1644  22.2296  22.2543
    22.4028  22.4738  22.6992  22.7189  22.9344  23.0273  23.0710  23.1569
    23.1847  23.3142  23.4355  23.4943  23.8980  23.9585  23.9855  24.2174
    24.3090  24.4002  24.7299  24.7630  24.7752  25.1659  25.5140  25.6428
    25.6483  25.8721  25.8974  25.9586  26.1160  26.4150  26.7741  26.8133
    27.0050  27.0265  27.1337  27.2158  27.2331  27.2888  27.4659  27.6596
    27.7890  27.9431  28.1793  28.2841  28.2969  28.3227  28.4705  28.4766

     occupation numbers 
     1.0000   1.0000   1.0000   1.0000   1.0000   1.0000   1.0000   1.0000
     1.0000   1.0000   1.0000   1.0000   1.0000   1.0000   1.0000   1.0000
     1.0000   1.0000   1.0000   1.0000   1.0000   1.0000   1.0000   1.0000
     1.0000   1.0000   1.0000   1.0000   1.0000   1.0000   1.0000   1.0000
     1.0000   1.0000   1.0000   1.0000   1.0000   1.0000   1.0000   1.0000
     1.0000   1.0000   1.0000   1.0000   1.0000   1.0000   1.0000   1.0000
     1.0000   1.0000   1.0000   1.0000   1.0000   1.0000   1.0000   1.0000
     1.0000   1.0000   1.0000   1.0000   1.0000   1.0000   1.0000   1.0000
     1.0000   1.0000   1.0002   1.0425   1.0347   0.0000   0.0000   0.0000
     0.0000   0.0000   0.0000   0.0000   0.0000   0.0000   0.0000   0.0000
     0.0000   0.0000   0.0000   0.0000   0.0000   0.0000   0.0000   0.0000
     0.0000   0.0000   0.0000   0.0000   0.0000   0.0000   0.0000   0.0000
     0.0000   0.0000   0.0000   0.0000   0.0000   0.0000   0.0000   0.0000
     0.0000   0.0000   0.0000   0.0000   0.0000   0.0000   0.0000   0.0000
     0.0000   0.0000   0.0000   0.0000   0.0000   0.0000   0.0000   0.0000
     0.0000   0.0000   0.0000   0.0000   0.0000   0.0000   0.0000   0.0000
     0.0000   0.0000   0.0000   0.0000   0.0000   0.0000   0.0000   0.0000
     0.0000   0.0000   0.0000   0.0000   0.0000   0.0000   0.0000   0.0000
     0.0000   0.0000   0.0000   0.0000   0.0000   0.0000   0.0000   0.0000
     0.0000   0.0000   0.0000   0.0000   0.0000   0.0000   0.0000   0.0000
     0.0000   0.0000   0.0000   0.0000   0.0000   0.0000   0.0000   0.0000
     0.0000   0.0000   0.0000   0.0000   0.0000   0.0000   0.0000   0.0000
     0.0000   0.0000   0.0000   0.0000   0.0000   0.0000   0.0000   0.0000
     0.0000   0.0000   0.0000   0.0000   0.0000   0.0000   0.0000   0.0000
     0.0000   0.0000   0.0000   0.0000   0.0000   0.0000   0.0000   0.0000

          k =-4.7368-2.7463 0.2500 ( 23474 PWs)   bands (ev):

   -73.9633 -69.3595 -42.7175 -42.7121 -42.7109 -38.2012 -38.1966 -38.1818
   -15.5736 -15.5735 -15.5728 -15.5727 -15.5642 -15.5641 -15.5620 -15.5619
   -15.5554 -15.5552 -15.5523 -15.5522 -15.5521 -15.5520 -15.5501 -15.5500
   -15.5487 -15.5486 -15.5457 -15.5456  -5.0679  -5.0569  -4.8802  -4.8659
    -3.4615  -3.3719  -3.0577  -2.9528  -1.7980  -1.6835  -1.4138  -1.3331
     3.3066   3.5700   3.6486   3.7846   4.1380   4.2473   4.3073   4.4896
     4.5942   4.7528   4.9812   5.0171   5.0608   5.1002   5.1595   5.3558
     5.4320   5.4531   5.8406   6.0123   6.1545   6.1882   6.3547   6.4698
     6.6492   6.6662   7.0789   7.2842   7.4402   8.5726   8.6392   8.8841
     8.9396   9.0341   9.0647   9.1735   9.4350   9.4474   9.6277   9.7255
     9.8628  10.0648  10.0884  10.5187  10.6309  10.9442  11.5903  11.8043
    12.2084  12.2579  12.3705  12.8238  13.3652  13.4994  13.6221  13.6908
    13.8539  14.0601  14.2288  14.2492  14.4178  14.6541  14.6953  14.8420
    15.0100  15.2775  15.3642  15.4119  15.7974  15.8082  16.0915  16.2381
    16.2587  16.4136  16.6264  16.7687  17.0286  17.3166  17.3227  17.5722
    17.9550  18.0616  18.0634  18.1667  18.3334  18.4497  18.4661  18.6190
    18.6839  18.8055  19.0573  19.1807  19.4520  19.5546  20.1119  20.1295
    20.1718  20.4681  20.4907  20.9261  20.9954  21.0640  21.1369  21.2690
    21.2722  21.7208  22.0345  22.0911  22.2938  22.5703  22.6945  23.2187
    23.2737  23.4142  23.5627  23.5710  23.6612  23.7583  23.8874  23.9629
    24.0057  24.0867  24.1722  24.2456  24.3143  24.3835  24.6469  24.8695
    24.9120  24.9688  24.9798  25.0956  25.4745  25.5014  25.6006  25.7447
    25.8602  25.9516  26.2041  26.3384  26.3909  26.4265  26.8127  26.8185
    26.9567  27.3128  27.3527  27.6606  27.9434  27.9761  28.2750  28.3096
    28.5903  28.6024  28.7053  28.7356  28.9244  29.1072  29.1648  29.2875

     occupation numbers 
     1.0000   1.0000   1.0000   1.0000   1.0000   1.0000   1.0000   1.0000
     1.0000   1.0000   1.0000   1.0000   1.0000   1.0000   1.0000   1.0000
     1.0000   1.0000   1.0000   1.0000   1.0000   1.0000   1.0000   1.0000
     1.0000   1.0000   1.0000   1.0000   1.0000   1.0000   1.0000   1.0000
     1.0000   1.0000   1.0000   1.0000   1.0000   1.0000   1.0000   1.0000
     1.0000   1.0000   1.0000   1.0000   1.0000   1.0000   1.0000   1.0000
     1.0000   1.0000   1.0000   1.0000   1.0000   1.0000   1.0000   1.0000
     1.0000   1.0000   1.0000   1.0000   1.0000   1.0000   1.0000   1.0000
     1.0000   1.0001   1.0340   1.0815   0.9267   0.0000   0.0000   0.0000
     0.0000   0.0000   0.0000   0.0000   0.0000   0.0000   0.0000   0.0000
     0.0000   0.0000   0.0000   0.0000   0.0000   0.0000   0.0000   0.0000
     0.0000   0.0000   0.0000   0.0000   0.0000   0.0000   0.0000   0.0000
     0.0000   0.0000   0.0000   0.0000   0.0000   0.0000   0.0000   0.0000
     0.0000   0.0000   0.0000   0.0000   0.0000   0.0000   0.0000   0.0000
     0.0000   0.0000   0.0000   0.0000   0.0000   0.0000   0.0000   0.0000
     0.0000   0.0000   0.0000   0.0000   0.0000   0.0000   0.0000   0.0000
     0.0000   0.0000   0.0000   0.0000   0.0000   0.0000   0.0000   0.0000
     0.0000   0.0000   0.0000   0.0000   0.0000   0.0000   0.0000   0.0000
     0.0000   0.0000   0.0000   0.0000   0.0000   0.0000   0.0000   0.0000
     0.0000   0.0000   0.0000   0.0000   0.0000   0.0000   0.0000   0.0000
     0.0000   0.0000   0.0000   0.0000   0.0000   0.0000   0.0000   0.0000
     0.0000   0.0000   0.0000   0.0000   0.0000   0.0000   0.0000   0.0000
     0.0000   0.0000   0.0000   0.0000   0.0000   0.0000   0.0000   0.0000
     0.0000   0.0000   0.0000   0.0000   0.0000   0.0000   0.0000   0.0000
     0.0000   0.0000   0.0000   0.0000   0.0000   0.0000   0.0000   0.0000

          k =-5.5197-3.2002 0.3750 ( 23440 PWs)   bands (ev):

   -73.9633 -69.3595 -42.7173 -42.7121 -42.7109 -38.2009 -38.1965 -38.1818
   -15.5696 -15.5695 -15.5688 -15.5687 -15.5668 -15.5668 -15.5645 -15.5644
   -15.5559 -15.5559 -15.5540 -15.5540 -15.5531 -15.5531 -15.5522 -15.5521
   -15.5487 -15.5487 -15.5478 -15.5477  -5.4635  -5.4551  -5.2599  -5.2526
    -3.7047  -3.6324  -3.1847  -3.1319  -1.5268  -1.4715  -0.9121  -0.8743
     3.6633   4.0928   4.1525   4.2827   4.6105   4.6417   4.8164   4.8283
     5.0934   5.1678   5.3432   5.5478   5.6169   5.6178   5.6776   5.7803
     5.9065   6.0604   6.2542   6.2670   6.4462   6.7729   6.8265   6.9115
     6.9692   7.0936   7.2636   7.4949   7.5472   8.5137   8.6585   8.7333
     8.7836   8.8930   8.9779   9.0754   9.1721   9.2135   9.3019   9.3482
     9.5119   9.6450   9.6515   9.9299  10.2440  10.3519  11.6256  11.8944
    12.0985  12.5477  12.7138  12.9251  13.0376  13.1420  13.1628  13.3076
    13.5958  13.7480  13.7746  13.8672  13.8918  14.0390  14.0517  14.4741
    14.5453  14.6710  14.9175  14.9401  15.2919  15.3451  15.5247  15.5729
    15.9644  16.0001  16.1661  16.3062  16.4239  16.5775  16.6534  16.6664
    16.7769  16.9681  17.0456  17.1592  17.3517  17.4572  17.7166  17.8676
    17.9842  18.0731  18.3070  18.4926  18.6385  18.9259  19.0944  19.2544
    19.4490  19.5509  19.6853  19.8325  20.1773  20.4026  20.5610  20.7643
    20.9355  21.1923  21.4487  21.5141  21.6271  21.9345  22.0137  22.1274
    22.7244  22.9203  23.1413  23.2109  23.3676  23.8347  23.8363  24.0882
    24.3524  24.5581  24.9978  25.1324  25.2652  25.5597  25.9743  26.2537
    26.3869  26.4503  26.5637  26.5804  26.6927  26.8143  26.8429  27.0447
    27.1937  27.4216  27.4433  27.4688  27.5121  27.6909  27.8660  28.0467
    28.0833  28.2801  28.3336  28.4416  28.4577  28.7639  28.7761  28.9251
    29.1322  29.1946  29.3827  29.4130  29.5139  29.5451  29.6108  29.6580

     occupation numbers 
     1.0000   1.0000   1.0000   1.0000   1.0000   1.0000   1.0000   1.0000
     1.0000   1.0000   1.0000   1.0000   1.0000   1.0000   1.0000   1.0000
     1.0000   1.0000   1.0000   1.0000   1.0000   1.0000   1.0000   1.0000
     1.0000   1.0000   1.0000   1.0000   1.0000   1.0000   1.0000   1.0000
     1.0000   1.0000   1.0000   1.0000   1.0000   1.0000   1.0000   1.0000
     1.0000   1.0000   1.0000   1.0000   1.0000   1.0000   1.0000   1.0000
     1.0000   1.0000   1.0000   1.0000   1.0000   1.0000   1.0000   1.0000
     1.0000   1.0000   1.0000   1.0000   1.0000   1.0006   1.0014   1.0051
     1.0108   1.0385   1.0833   0.8062   0.6690   0.0000   0.0000   0.0000
     0.0000   0.0000   0.0000   0.0000   0.0000   0.0000   0.0000   0.0000
     0.0000   0.0000   0.0000   0.0000   0.0000   0.0000   0.0000   0.0000
     0.0000   0.0000   0.0000   0.0000   0.0000   0.0000   0.0000   0.0000
     0.0000   0.0000   0.0000   0.0000   0.0000   0.0000   0.0000   0.0000
     0.0000   0.0000   0.0000   0.0000   0.0000   0.0000   0.0000   0.0000
     0.0000   0.0000   0.0000   0.0000   0.0000   0.0000   0.0000   0.0000
     0.0000   0.0000   0.0000   0.0000   0.0000   0.0000   0.0000   0.0000
     0.0000   0.0000   0.0000   0.0000   0.0000   0.0000   0.0000   0.0000
     0.0000   0.0000   0.0000   0.0000   0.0000   0.0000   0.0000   0.0000
     0.0000   0.0000   0.0000   0.0000   0.0000   0.0000   0.0000   0.0000
     0.0000   0.0000   0.0000   0.0000   0.0000   0.0000   0.0000   0.0000
     0.0000   0.0000   0.0000   0.0000   0.0000   0.0000   0.0000   0.0000
     0.0000   0.0000   0.0000   0.0000   0.0000   0.0000   0.0000   0.0000
     0.0000   0.0000   0.0000   0.0000   0.0000   0.0000   0.0000   0.0000
     0.0000   0.0000   0.0000   0.0000   0.0000   0.0000   0.0000   0.0000
     0.0000   0.0000   0.0000   0.0000   0.0000   0.0000   0.0000   0.0000

          k =-0.0397-0.0230-0.5000 ( 23456 PWs)   bands (ev):

   -73.9633 -69.3595 -42.7172 -42.7121 -42.7109 -38.2008 -38.1965 -38.1819
   -15.5684 -15.5684 -15.5682 -15.5681 -15.5673 -15.5673 -15.5659 -15.5659
   -15.5573 -15.5571 -15.5554 -15.5552 -15.5529 -15.5527 -15.5523 -15.5521
   -15.5485 -15.5483 -15.5480 -15.5478  -5.5996  -5.5919  -5.3911  -5.3871
    -3.7994  -3.7287  -3.2429  -3.2062  -1.4575  -1.4239  -0.7363  -0.7304
     3.7108   4.1903   4.2610   4.2615   4.8636   4.8656   5.0892   5.2841
     5.4280   5.8296   5.8310   5.9467   5.9471   5.9956   5.9969   6.1677
     6.1681   6.2967   6.2976   6.3941   6.4248   6.9386   6.9394   7.0026
     7.0035   7.4937   7.4939   7.5953   7.6098   8.4075   8.5057   8.5527
     8.5538   8.8181   8.8218   8.9049   8.9902   8.9911   9.0402   9.1088
     9.1094   9.1117   9.4032   9.4033  10.1650  10.1670  11.4808  11.7089
    11.8224  12.5937  12.8692  12.8718  13.1959  13.3121  13.3709  13.3738
    13.6133  13.7874  13.8387  13.8394  13.9002  13.9014  14.2297  14.3107
    14.5455  14.5464  14.5525  14.5530  15.1449  15.1546  15.6694  15.6956
    15.6972  15.6996  15.8304  15.8320  15.8461  15.8474  15.9245  15.9258
    16.1853  16.2695  17.1154  17.1155  17.2210  17.2218  17.2869  17.4623
    17.9323  17.9340  17.9384  17.9402  18.5480  18.6396  18.7940  18.8566
    19.6286  19.6288  19.6737  19.6752  20.1636  20.3221  20.3365  20.3369
    20.3451  20.3465  20.7447  20.8798  22.1437  22.1703  22.3672  22.3674
    22.4306  22.4312  22.8424  22.8434  22.9044  22.9064  23.0667  23.0907
    25.1116  25.2608  25.3406  25.3430  25.3453  25.3477  25.8091  25.8496
    26.0937  26.0968  26.1756  26.1774  27.2228  27.2600  28.2645  28.3531
    28.4364  28.4559  28.5243  28.5263  28.5468  28.5480  28.5924  28.6033
    29.1318  29.1323  29.1913  29.1922  29.3839  29.3885  29.8425  29.8442
    29.8857  29.8903  30.2266  30.2299  30.2607  30.2649  30.4803  30.6656

     occupation numbers 
     1.0000   1.0000   1.0000   1.0000   1.0000   1.0000   1.0000   1.0000
     1.0000   1.0000   1.0000   1.0000   1.0000   1.0000   1.0000   1.0000
     1.0000   1.0000   1.0000   1.0000   1.0000   1.0000   1.0000   1.0000
     1.0000   1.0000   1.0000   1.0000   1.0000   1.0000   1.0000   1.0000
     1.0000   1.0000   1.0000   1.0000   1.0000   1.0000   1.0000   1.0000
     1.0000   1.0000   1.0000   1.0000   1.0000   1.0000   1.0000   1.0000
     1.0000   1.0000   1.0000   1.0000   1.0000   1.0000   1.0000   1.0000
     1.0000   1.0000   1.0000   1.0000   1.0000   1.0073   1.0074   1.0160
     1.0161   0.8090   0.8087   0.5364   0.4968   0.0000   0.0000   0.0000
     0.0000   0.0000   0.0000   0.0000   0.0000   0.0000   0.0000   0.0000
     0.0000   0.0000   0.0000   0.0000   0.0000   0.0000   0.0000   0.0000
     0.0000   0.0000   0.0000   0.0000   0.0000   0.0000   0.0000   0.0000
     0.0000   0.0000   0.0000   0.0000   0.0000   0.0000   0.0000   0.0000
     0.0000   0.0000   0.0000   0.0000   0.0000   0.0000   0.0000   0.0000
     0.0000   0.0000   0.0000   0.0000   0.0000   0.0000   0.0000   0.0000
     0.0000   0.0000   0.0000   0.0000   0.0000   0.0000   0.0000   0.0000
     0.0000   0.0000   0.0000   0.0000   0.0000   0.0000   0.0000   0.0000
     0.0000   0.0000   0.0000   0.0000   0.0000   0.0000   0.0000   0.0000
     0.0000   0.0000   0.0000   0.0000   0.0000   0.0000   0.0000   0.0000
     0.0000   0.0000   0.0000   0.0000   0.0000   0.0000   0.0000   0.0000
     0.0000   0.0000   0.0000   0.0000   0.0000   0.0000   0.0000   0.0000
     0.0000   0.0000   0.0000   0.0000   0.0000   0.0000   0.0000   0.0000
     0.0000   0.0000   0.0000   0.0000   0.0000   0.0000   0.0000   0.0000
     0.0000   0.0000   0.0000   0.0000   0.0000   0.0000   0.0000   0.0000
     0.0000   0.0000   0.0000   0.0000   0.0000   0.0000   0.0000   0.0000

     the Fermi energy is     7.6465 ev
     (compare with:     7.6646 eV, computed in scf)

     Writing all to output data dir ./tmp/MnBi2Te4.save/
 
     init_run     :      0.81s CPU      1.27s WALL (       1 calls)
     electrons    :  34027.26s CPU  34843.29s WALL (       1 calls)

     Called by init_run:
     wfcinit      :      0.00s CPU      0.00s WALL (       1 calls)
     wfcinit:atom :      0.11s CPU      0.14s WALL (     520 calls)
     wfcinit:wfcr :    946.51s CPU    964.69s WALL (     520 calls)
     potinit      :      0.35s CPU      0.48s WALL (       1 calls)
     hinit0       :      0.33s CPU      0.48s WALL (       1 calls)

     Called by electrons:
     c_bands      :  34027.02s CPU  34842.84s WALL (       1 calls)
     v_of_rho     :      0.21s CPU      0.29s WALL (       1 calls)
     v_h          :      0.01s CPU      0.01s WALL (       1 calls)
     v_xc         :      0.21s CPU      0.28s WALL (       1 calls)
     newd         :      0.04s CPU      0.07s WALL (       1 calls)
     PAW_pot      :      0.12s CPU      0.16s WALL (       1 calls)

     Called by c_bands:
     init_us_2    :      0.17s CPU      0.23s WALL (     520 calls)
     init_us_2:cp :      0.17s CPU      0.23s WALL (     520 calls)
     cegterg      :  33075.92s CPU  33870.74s WALL (    2335 calls)

     Called by sum_band:

     Called by *egterg:
     cdiaghg      :   1460.01s CPU   1515.78s WALL (   42197 calls)
     cegterg:over :    549.52s CPU    683.61s WALL (   41677 calls)
     cegterg:upda :    317.71s CPU    337.39s WALL (   41677 calls)
     cegterg:last :    728.59s CPU    777.85s WALL (   16763 calls)
     cdiaghg:chol :    143.44s CPU    145.97s WALL (   42197 calls)
     cdiaghg:inve :     24.60s CPU     24.79s WALL (   42197 calls)
     cdiaghg:para :    312.45s CPU    343.69s WALL (   84394 calls)
     h_psi        :  30709.55s CPU  31247.82s WALL (   44532 calls)
     s_psi        :     76.34s CPU     77.11s WALL (   44532 calls)
     g_psi        :      2.83s CPU      2.88s WALL (   41677 calls)

     Called by h_psi:
     h_psi:calbec :    328.16s CPU    407.76s WALL (   44532 calls)
     vloc_psi     :  30283.16s CPU  30740.08s WALL (   44532 calls)
     add_vuspsi   :     93.71s CPU     95.32s WALL (   44532 calls)

     General routines
     calbec       :    327.97s CPU    407.63s WALL (   44532 calls)
     fft          :      0.08s CPU      0.11s WALL (      21 calls)
     fftw         :  29023.97s CPU  29468.87s WALL ( 6607334 calls)
     davcio       :      0.17s CPU      3.07s WALL (    1040 calls)
 
     Parallel routines

     PAW routines
     PAW_pot      :      0.12s CPU      0.16s WALL (       1 calls)
 
     PWSCF        :      9h45m CPU     10h 0m WALL

 
   This run was terminated on:  21:11:53  15Jun2025            

=------------------------------------------------------------------------------=
   JOB DONE.
=------------------------------------------------------------------------------=
