
     Program PWSCF v.7.2 starts on 19Sep2025 at 12:12: 6 

     This program is part of the open-source Quantum ESPRESSO suite
     for quantum simulation of materials; please cite
         "P. Giannozzi et al., J. Phys.:Condens. Matter 21 395502 (2009);
         "P. Giannozzi et al., J. Phys.:Condens. Matter 29 465901 (2017);
         "P. Giannozzi et al., J. Chem. Phys. 152 154105 (2020);
          URL http://www.quantum-espresso.org", 
     in publications or presentations arising from this work. More details at
     http://www.quantum-espresso.org/quote

     Parallel version (MPI), running on    32 processors

     MPI processes distributed on     1 nodes
     121106 MiB available memory on the printing compute node when the environment starts
 
     Reading input from MnBi2Te4.nscf.in

     Current dimensions of program PWSCF are:
     Max number of different atomic species (ntypx) = 10
     Max number of k-points (npk) =  40000
     Max angular momentum in pseudopotentials (lmaxx) =  4
     Message from routine input:
     WARNING: "startingwfc" set to atomic+random may spoil restart
     file Mn.rel-pbe-spn-kjpaw_psl.0.3.1.UPF: wavefunction(s)  3P 3P 3D renormalized
     file Mn.rel-pbe-spn-kjpaw_psl.0.3.1.UPF: wavefunction(s)  3P 3P 3D renormalized
     file Bi.rel-pbe-dn-kjpaw_psl.1.0.0.UPF: wavefunction(s)  6P 6P 5D 5D renormalized
     file Te.rel-pbe-n-kjpaw_psl.1.0.0.UPF: wavefunction(s)  5S 5P 5P renormalized

     Fixed quantization axis for GGA:     0.000000    0.000000    1.000000
 
     R & G space division:  proc/nbgrp/npool/nimage =      32
     Subspace diagonalization in iterative solution of the eigenvalue problem:
     one sub-group per band group will be used
     scalapack distributed-memory algorithm (size of sub-group:  2*  2 procs)

 
     Parallelization info
     --------------------
     sticks:   dense  smooth     PW     G-vecs:    dense   smooth      PW
     Min         252     252     73                 5873     5873     933
     Max         253     253     74                 5875     5875     934
     Sum        8079    8079   2357               187971   187971   29875
 
     Using Slab Decomposition
 


     bravais-lattice index     =            0
     lattice parameter (alat)  =      51.7756  a.u.
     unit-cell volume          =    2994.5794 (a.u.)^3
     number of atoms/cell      =           14
     number of atomic types    =            4
     number of electrons       =       138.00
     number of Kohn-Sham states=          240
     kinetic-energy cutoff     =      60.0000  Ry
     charge density cutoff     =     240.0000  Ry
     Exchange-correlation= SLA  PW   PBX  PBC
                           (   1   4   3   4   0   0   0)
     Noncollinear calculation with spin-orbit

     Hubbard projectors: ortho-atomic
     Hubbard parameters of DFT+U (Liechtenstein formulation) in eV:
     U(Mn1-3d) =  4.0000
     U(Mn2-3d) =  4.0000
     DFT+U on averaged j=l+1/2,l-1/2 radial WFs

     Internal variables: lda_plus_u = T, lda_plus_u_kind = 1

     celldm(1)=  51.775642  celldm(2)=   0.000000  celldm(3)=   0.000000
     celldm(4)=   0.000000  celldm(5)=   0.000000  celldm(6)=   0.000000

     crystal axes: (cart. coord. in units of alat)
               a(1) = (   0.079085  -0.045660   0.995822 )  
               a(2) = (   0.000000   0.091319   0.995822 )  
               a(3) = (  -0.079085  -0.045660   0.995822 )  

     reciprocal axes: (cart. coord. in units 2 pi/alat)
               b(1) = (  6.322314 -3.650196  0.334731 )  
               b(2) = (  0.000000  7.300392  0.334734 )  
               b(3) = ( -6.322314 -3.650196  0.334731 )  


     PseudoPot. # 1 for Mn read from file:
     ./Mn.rel-pbe-spn-kjpaw_psl.0.3.1.UPF
     MD5 check sum: dfba1c7561257014502ac20495784078
     Pseudo is Projector augmented-wave + core cor, Zval = 15.0
     Generated using &quot;atomic&quot; code by A. Dal Corso  v.6.2.2
     Shape of augmentation charge: PSQ
     Using radial grid of 1187 points, 10 beta functions with: 
                l(1) =   0
                l(2) =   0
                l(3) =   1
                l(4) =   1
                l(5) =   1
                l(6) =   1
                l(7) =   2
                l(8) =   2
                l(9) =   2
               l(10) =   2
     Q(r) pseudized with 0 coefficients 


     PseudoPot. # 2 for Mn read from file:
     ./Mn.rel-pbe-spn-kjpaw_psl.0.3.1.UPF
     MD5 check sum: dfba1c7561257014502ac20495784078
     Pseudo is Projector augmented-wave + core cor, Zval = 15.0
     Generated using &quot;atomic&quot; code by A. Dal Corso  v.6.2.2
     Shape of augmentation charge: PSQ
     Using radial grid of 1187 points, 10 beta functions with: 
                l(1) =   0
                l(2) =   0
                l(3) =   1
                l(4) =   1
                l(5) =   1
                l(6) =   1
                l(7) =   2
                l(8) =   2
                l(9) =   2
               l(10) =   2
     Q(r) pseudized with 0 coefficients 


     PseudoPot. # 3 for Bi read from file:
     ./Bi.rel-pbe-dn-kjpaw_psl.1.0.0.UPF
     MD5 check sum: 8010b987e9fb97324c8de82fb26a3f7d
     Pseudo is Projector augmented-wave + core cor, Zval = 15.0
     Generated using &quot;atomic&quot; code by A. Dal Corso  v.6.2.2
     Shape of augmentation charge: PSQ
     Using radial grid of 1283 points, 10 beta functions with: 
                l(1) =   0
                l(2) =   0
                l(3) =   1
                l(4) =   1
                l(5) =   1
                l(6) =   1
                l(7) =   2
                l(8) =   2
                l(9) =   2
               l(10) =   2
     Q(r) pseudized with 0 coefficients 


     PseudoPot. # 4 for Te read from file:
     ./Te.rel-pbe-n-kjpaw_psl.1.0.0.UPF
     MD5 check sum: 8399411061dffbb19b40ade5049f5146
     Pseudo is Projector augmented-wave + core cor, Zval =  6.0
     Generated using &quot;atomic&quot; code by A. Dal Corso  v.6.3
     Shape of augmentation charge: PSQ
     Using radial grid of 1245 points, 10 beta functions with: 
                l(1) =   0
                l(2) =   0
                l(3) =   1
                l(4) =   1
                l(5) =   1
                l(6) =   1
                l(7) =   2
                l(8) =   2
                l(9) =   2
               l(10) =   2
     Q(r) pseudized with 0 coefficients 


     atomic species   valence    mass     pseudopotential
        Mn1           15.00    54.93800     Mn( 1.00)
        Mn2           15.00    54.93800     Mn( 1.00)
        Bi            15.00   208.98000     Bi( 1.00)
        Te             6.00   127.60300     Te( 1.00)

     No symmetry found


                                    s                        frac. trans.

      isym =  1     identity                                     

 Time Reversal            0
 cryst.   s( 1) = (     1          0          0      )
                  (     0          1          0      )
                  (     0          0          1      )

 cart.    s( 1) = (  1.0000000  0.0000000  0.0000000 )
                  (  0.0000000  1.0000000 -0.0000000 )
                  (  0.0000000  0.0000000  1.0000000 )


   Cartesian axes

     site n.     atom                  positions (alat units)
         1           Mn1 tau(   1) = (   0.0000000   0.0000000   0.0000000  )
         2           Mn2 tau(   2) = (   0.0000000  -0.0000005   1.4937325  )
         3           Bi  tau(   3) = (   0.0000000  -0.0000002   0.6346869  )
         4           Bi  tau(   4) = (   0.0000000  -0.0000007   2.1284194  )
         5           Bi  tau(   5) = (   0.0000000  -0.0000003   0.8590455  )
         6           Bi  tau(   6) = (   0.0000000  -0.0000008   2.3527780  )
         7           Te  tau(   7) = (   0.0000000  -0.0000001   0.1992042  )
         8           Te  tau(   8) = (   0.0000000  -0.0000006   1.6929366  )
         9           Te  tau(   9) = (   0.0000000  -0.0000004   1.2945283  )
        10           Te  tau(  10) = (   0.0000000  -0.0000009   2.7882608  )
        11           Te  tau(  11) = (   0.0000000  -0.0000001   0.4392470  )
        12           Te  tau(  12) = (   0.0000000  -0.0000006   1.9329794  )
        13           Te  tau(  13) = (   0.0000000  -0.0000004   1.0544855  )
        14           Te  tau(  14) = (   0.0000000  -0.0000009   2.5482179  )

     --------------------------------------------
     DFT-D3 Dispersion Correction (3-body terms):
     --------------------------------------------
       Reference C6 values for interpolation: 

         atom   Coordination number   C6
         Mn1        0.000          1605.50
         Mn1        1.641           479.11
         Mn1        9.885           227.69
         Mn2        0.000          1605.50
         Mn2        1.641           479.11
         Mn2        9.885           227.69
         Te         0.000           851.07
         Te         0.981           850.20
         Te         1.964           837.16
         Bi         0.000          1235.06
         Bi         0.982          1188.09
         Bi         1.966          1132.10
         Bi         2.950          1067.76

       Values used:

         atom   Coordination number  R0_AB[au]  C6      C8
         Mn1        3.848            3.351    479.11  48433.79
         Mn2        3.848            3.351    479.11  48433.79
         Bi         5.275            3.890   1067.76 147315.96
         Bi         5.275            3.890   1067.76 147315.96
         Bi         5.275            3.890   1067.76 147315.96
         Bi         5.275            3.890   1067.76 147315.96
         Te         3.328            3.676    837.16  84978.06
         Te         3.328            3.676    837.16  84978.06
         Te         3.328            3.676    837.16  84978.06
         Te         3.328            3.676    837.16  84978.06
         Te         4.238            3.676    837.16  84978.05
         Te         4.238            3.676    837.16  84978.05
         Te         4.238            3.676    837.16  84978.05
         Te         4.238            3.676    837.16  84978.05

         Molecular C6 ( Ry / a.u.^6 ) =    164642.77


   Crystallographic axes

     site n.     atom                  positions (cryst. coord.)
         1           Mn1 tau(   1) = (  0.0000000  0.0000000  0.0000000  )
         2           Mn2 tau(   2) = (  0.5000000  0.5000000  0.5000000  )
         3           Bi  tau(   3) = (  0.2124500  0.2124500  0.2124500  )
         4           Bi  tau(   4) = (  0.7124500  0.7124500  0.7124500  )
         5           Bi  tau(   5) = (  0.2875500  0.2875500  0.2875500  )
         6           Bi  tau(   6) = (  0.7875500  0.7875500  0.7875500  )
         7           Te  tau(   7) = (  0.0666800  0.0666800  0.0666800  )
         8           Te  tau(   8) = (  0.5666800  0.5666800  0.5666800  )
         9           Te  tau(   9) = (  0.4333200  0.4333200  0.4333200  )
        10           Te  tau(  10) = (  0.9333200  0.9333200  0.9333200  )
        11           Te  tau(  11) = (  0.1470300  0.1470300  0.1470300  )
        12           Te  tau(  12) = (  0.6470300  0.6470300  0.6470300  )
        13           Te  tau(  13) = (  0.3529700  0.3529700  0.3529700  )
        14           Te  tau(  14) = (  0.8529700  0.8529700  0.8529700  )

     number of k points=    64  Marzari-Vanderbilt smearing, width (Ry)=  0.0200
                       cart. coord. in units 2pi/alat
        k(    1) = (   0.0000000   0.0000000   0.0000000), wk =   0.0156250
        k(    2) = (  -1.5805784  -0.9125490   0.0836827), wk =   0.0156250
        k(    3) = (  -3.1611569  -1.8250979   0.1673654), wk =   0.0156250
        k(    4) = (  -4.7417353  -2.7376469   0.2510481), wk =   0.0156250
        k(    5) = (   0.0000000   1.8250979   0.0836836), wk =   0.0156250
        k(    6) = (  -1.5805784   0.9125490   0.1673663), wk =   0.0156250
        k(    7) = (  -3.1611569   0.0000000   0.2510490), wk =   0.0156250
        k(    8) = (  -4.7417353  -0.9125490   0.3347317), wk =   0.0156250
        k(    9) = (   0.0000000   3.6501959   0.1673672), wk =   0.0156250
        k(   10) = (  -1.5805784   2.7376469   0.2510499), wk =   0.0156250
        k(   11) = (  -3.1611569   1.8250979   0.3347326), wk =   0.0156250
        k(   12) = (  -4.7417353   0.9125490   0.4184153), wk =   0.0156250
        k(   13) = (   0.0000000   5.4752938   0.2510508), wk =   0.0156250
        k(   14) = (  -1.5805784   4.5627449   0.3347335), wk =   0.0156250
        k(   15) = (  -3.1611569   3.6501959   0.4184162), wk =   0.0156250
        k(   16) = (  -4.7417353   2.7376469   0.5020989), wk =   0.0156250
        k(   17) = (   1.5805784  -0.9125490   0.0836827), wk =   0.0156250
        k(   18) = (   0.0000000  -1.8250979   0.1673654), wk =   0.0156250
        k(   19) = (  -1.5805784  -2.7376469   0.2510481), wk =   0.0156250
        k(   20) = (  -3.1611569  -3.6501959   0.3347307), wk =   0.0156250
        k(   21) = (   1.5805784   0.9125490   0.1673663), wk =   0.0156250
        k(   22) = (   0.0000000   0.0000000   0.2510490), wk =   0.0156250
        k(   23) = (  -1.5805784  -0.9125490   0.3347317), wk =   0.0156250
        k(   24) = (  -3.1611569  -1.8250979   0.4184143), wk =   0.0156250
        k(   25) = (   1.5805784   2.7376469   0.2510499), wk =   0.0156250
        k(   26) = (   0.0000000   1.8250979   0.3347326), wk =   0.0156250
        k(   27) = (  -1.5805784   0.9125490   0.4184153), wk =   0.0156250
        k(   28) = (  -3.1611569   0.0000000   0.5020979), wk =   0.0156250
        k(   29) = (   1.5805784   4.5627449   0.3347335), wk =   0.0156250
        k(   30) = (   0.0000000   3.6501959   0.4184162), wk =   0.0156250
        k(   31) = (  -1.5805784   2.7376469   0.5020989), wk =   0.0156250
        k(   32) = (  -3.1611569   1.8250979   0.5857815), wk =   0.0156250
        k(   33) = (   3.1611569  -1.8250979   0.1673654), wk =   0.0156250
        k(   34) = (   1.5805784  -2.7376469   0.2510481), wk =   0.0156250
        k(   35) = (   0.0000000  -3.6501959   0.3347307), wk =   0.0156250
        k(   36) = (  -1.5805784  -4.5627449   0.4184134), wk =   0.0156250
        k(   37) = (   3.1611569   0.0000000   0.2510490), wk =   0.0156250
        k(   38) = (   1.5805784  -0.9125490   0.3347317), wk =   0.0156250
        k(   39) = (   0.0000000  -1.8250979   0.4184143), wk =   0.0156250
        k(   40) = (  -1.5805784  -2.7376469   0.5020970), wk =   0.0156250
        k(   41) = (   3.1611569   1.8250979   0.3347326), wk =   0.0156250
        k(   42) = (   1.5805784   0.9125490   0.4184153), wk =   0.0156250
        k(   43) = (   0.0000000   0.0000000   0.5020979), wk =   0.0156250
        k(   44) = (  -1.5805784  -0.9125490   0.5857806), wk =   0.0156250
        k(   45) = (   3.1611569   3.6501959   0.4184162), wk =   0.0156250
        k(   46) = (   1.5805784   2.7376469   0.5020989), wk =   0.0156250
        k(   47) = (   0.0000000   1.8250979   0.5857815), wk =   0.0156250
        k(   48) = (  -1.5805784   0.9125490   0.6694642), wk =   0.0156250
        k(   49) = (   4.7417353  -2.7376469   0.2510481), wk =   0.0156250
        k(   50) = (   3.1611569  -3.6501959   0.3347307), wk =   0.0156250
        k(   51) = (   1.5805784  -4.5627449   0.4184134), wk =   0.0156250
        k(   52) = (   0.0000000  -5.4752938   0.5020961), wk =   0.0156250
        k(   53) = (   4.7417353  -0.9125490   0.3347317), wk =   0.0156250
        k(   54) = (   3.1611569  -1.8250979   0.4184143), wk =   0.0156250
        k(   55) = (   1.5805784  -2.7376469   0.5020970), wk =   0.0156250
        k(   56) = (   0.0000000  -3.6501959   0.5857797), wk =   0.0156250
        k(   57) = (   4.7417353   0.9125490   0.4184153), wk =   0.0156250
        k(   58) = (   3.1611569   0.0000000   0.5020979), wk =   0.0156250
        k(   59) = (   1.5805784  -0.9125490   0.5857806), wk =   0.0156250
        k(   60) = (   0.0000000  -1.8250979   0.6694633), wk =   0.0156250
        k(   61) = (   4.7417353   2.7376469   0.5020989), wk =   0.0156250
        k(   62) = (   3.1611569   1.8250979   0.5857815), wk =   0.0156250
        k(   63) = (   1.5805784   0.9125490   0.6694642), wk =   0.0156250
        k(   64) = (   0.0000000   0.0000000   0.7531469), wk =   0.0156250

                       cryst. coord.
        k(    1) = (   0.0000000   0.0000000   0.0000000), wk =   0.0156250
        k(    2) = (   0.0000000   0.0000000   0.2500000), wk =   0.0156250
        k(    3) = (   0.0000000   0.0000000   0.5000000), wk =   0.0156250
        k(    4) = (  -0.0000000   0.0000000   0.7500000), wk =   0.0156250
        k(    5) = (   0.0000000   0.2500000   0.0000000), wk =   0.0156250
        k(    6) = (   0.0000000   0.2500000   0.2500000), wk =   0.0156250
        k(    7) = (   0.0000000   0.2500000   0.5000000), wk =   0.0156250
        k(    8) = (  -0.0000000   0.2500000   0.7500000), wk =   0.0156250
        k(    9) = (   0.0000000   0.5000000   0.0000000), wk =   0.0156250
        k(   10) = (   0.0000000   0.5000000   0.2500000), wk =   0.0156250
        k(   11) = (   0.0000000   0.5000000   0.5000000), wk =   0.0156250
        k(   12) = (  -0.0000000   0.5000000   0.7500000), wk =   0.0156250
        k(   13) = (   0.0000000   0.7500000   0.0000000), wk =   0.0156250
        k(   14) = (  -0.0000000   0.7500000   0.2500000), wk =   0.0156250
        k(   15) = (   0.0000000   0.7500000   0.5000000), wk =   0.0156250
        k(   16) = (   0.0000000   0.7500000   0.7500000), wk =   0.0156250
        k(   17) = (   0.2500000   0.0000000   0.0000000), wk =   0.0156250
        k(   18) = (   0.2500000   0.0000000   0.2500000), wk =   0.0156250
        k(   19) = (   0.2500000   0.0000000   0.5000000), wk =   0.0156250
        k(   20) = (   0.2500000   0.0000000   0.7500000), wk =   0.0156250
        k(   21) = (   0.2500000   0.2500000   0.0000000), wk =   0.0156250
        k(   22) = (   0.2500000   0.2500000   0.2500000), wk =   0.0156250
        k(   23) = (   0.2500000   0.2500000   0.5000000), wk =   0.0156250
        k(   24) = (   0.2500000   0.2500000   0.7500000), wk =   0.0156250
        k(   25) = (   0.2500000   0.5000000   0.0000000), wk =   0.0156250
        k(   26) = (   0.2500000   0.5000000   0.2500000), wk =   0.0156250
        k(   27) = (   0.2500000   0.5000000   0.5000000), wk =   0.0156250
        k(   28) = (   0.2500000   0.5000000   0.7500000), wk =   0.0156250
        k(   29) = (   0.2500000   0.7500000  -0.0000000), wk =   0.0156250
        k(   30) = (   0.2500000   0.7500000   0.2500000), wk =   0.0156250
        k(   31) = (   0.2500000   0.7500000   0.5000000), wk =   0.0156250
        k(   32) = (   0.2500000   0.7500000   0.7500000), wk =   0.0156250
        k(   33) = (   0.5000000   0.0000000   0.0000000), wk =   0.0156250
        k(   34) = (   0.5000000   0.0000000   0.2500000), wk =   0.0156250
        k(   35) = (   0.5000000   0.0000000   0.5000000), wk =   0.0156250
        k(   36) = (   0.5000000   0.0000000   0.7500000), wk =   0.0156250
        k(   37) = (   0.5000000   0.2500000   0.0000000), wk =   0.0156250
        k(   38) = (   0.5000000   0.2500000   0.2500000), wk =   0.0156250
        k(   39) = (   0.5000000   0.2500000   0.5000000), wk =   0.0156250
        k(   40) = (   0.5000000   0.2500000   0.7500000), wk =   0.0156250
        k(   41) = (   0.5000000   0.5000000   0.0000000), wk =   0.0156250
        k(   42) = (   0.5000000   0.5000000   0.2500000), wk =   0.0156250
        k(   43) = (   0.5000000   0.5000000   0.5000000), wk =   0.0156250
        k(   44) = (   0.5000000   0.5000000   0.7500000), wk =   0.0156250
        k(   45) = (   0.5000000   0.7500000   0.0000000), wk =   0.0156250
        k(   46) = (   0.5000000   0.7500000   0.2500000), wk =   0.0156250
        k(   47) = (   0.5000000   0.7500000   0.5000000), wk =   0.0156250
        k(   48) = (   0.5000000   0.7500000   0.7500000), wk =   0.0156250
        k(   49) = (   0.7500000   0.0000000  -0.0000000), wk =   0.0156250
        k(   50) = (   0.7500000   0.0000000   0.2500000), wk =   0.0156250
        k(   51) = (   0.7500000   0.0000000   0.5000000), wk =   0.0156250
        k(   52) = (   0.7500000   0.0000000   0.7500000), wk =   0.0156250
        k(   53) = (   0.7500000   0.2500000  -0.0000000), wk =   0.0156250
        k(   54) = (   0.7500000   0.2500000   0.2500000), wk =   0.0156250
        k(   55) = (   0.7500000   0.2500000   0.5000000), wk =   0.0156250
        k(   56) = (   0.7500000   0.2500000   0.7500000), wk =   0.0156250
        k(   57) = (   0.7500000   0.5000000  -0.0000000), wk =   0.0156250
        k(   58) = (   0.7500000   0.5000000   0.2500000), wk =   0.0156250
        k(   59) = (   0.7500000   0.5000000   0.5000000), wk =   0.0156250
        k(   60) = (   0.7500000   0.5000000   0.7500000), wk =   0.0156250
        k(   61) = (   0.7500000   0.7500000   0.0000000), wk =   0.0156250
        k(   62) = (   0.7500000   0.7500000   0.2500000), wk =   0.0156250
        k(   63) = (   0.7500000   0.7500000   0.5000000), wk =   0.0156250
        k(   64) = (   0.7500000   0.7500000   0.7500000), wk =   0.0156250

     Dense  grid:   187971 G-vectors     FFT dimensions: ( 256, 256, 256)

     Dynamical RAM for                 wfc:       5.38 MB

     Dynamical RAM for     wfc (w. buffer):       5.38 MB

     Dynamical RAM for             U proj.:       0.99 MB

     Dynamical RAM for  U proj. (w. buff.):       0.99 MB

     Dynamical RAM for           str. fact:       0.36 MB

     Dynamical RAM for           local pot:       0.00 MB

     Dynamical RAM for          nlocal pot:       5.33 MB

     Dynamical RAM for                qrad:      13.03 MB

     Dynamical RAM for          rho,v,vnew:      49.08 MB

     Dynamical RAM for           G-vectors:       0.38 MB

     Dynamical RAM for          h,s,v(r/c):       2.64 MB

     Dynamical RAM for          <psi|beta>:       3.49 MB

     Dynamical RAM for                 psi:      10.75 MB

     Dynamical RAM for                hpsi:      10.75 MB

     Dynamical RAM for                spsi:      10.75 MB

     Dynamical RAM for      wfcinit/wfcrot:       9.38 MB

     Dynamical RAM for           addusdens:      55.66 MB

     Estimated static dynamical RAM per process >     106.99 MB

     Estimated max dynamical RAM per process >     162.65 MB

     Estimated total dynamical RAM >       5.08 GB

     Atomic positions and unit cell read from directory:
     ./tmp/MnBi2Te4.save/
 

     Check: negative core charge=   -0.000015
     Generating pointlists ...
     new r_m :   0.0448 (alat units)  2.3181 (a.u.) for type    1
     new r_m :   0.0448 (alat units)  2.3181 (a.u.) for type    2
     new r_m :   0.0456 (alat units)  2.3625 (a.u.) for type    3
     new r_m :   0.0448 (alat units)  2.3181 (a.u.) for type    4

     The potential is recalculated from file :
     ./tmp/MnBi2Te4.save/charge-density

 --- in v_hubbard ---
Hub. E (dc, noflip, flip, total)    6.6224   6.7086  -0.0002   0.0859
 -------

     STARTING HUBBARD OCCUPATIONS:

     ================= HUBBARD OCCUPATIONS ================
     ------------------------ ATOM    1 ------------------------
     Tr[ns(  1)] (up, down, total) =   4.97270  0.29962  5.27232
     eigenvalues:
       0.014  0.014  0.014  0.128  0.129  0.988  0.992  0.997  0.998  0.998
     eigenvectors (columns):
       0.000 -0.000  0.007 -0.008 -0.000  0.000 -0.000 -0.000 -0.000  1.000
       0.000  0.000 -0.000 -0.000 -0.000 -0.000  0.000  0.000  0.000 -0.000
      -0.008  0.006 -0.000  0.000 -0.005  0.532  0.532  0.466  0.466  0.000
       0.000 -0.005  0.000  0.000 -0.005 -0.466 -0.466  0.532  0.532  0.000
      -0.000 -0.000  0.000 -0.000 -0.000  0.000 -0.000  0.000  0.000 -0.000
      -0.000  0.000 -0.000  0.000  0.000 -0.000  0.000  0.000  0.000 -0.000
      -0.002  0.466  0.433 -0.564  0.527  0.000 -0.005  0.000  0.005 -0.008
      -0.000  0.000 -0.000  0.000  0.000  0.000  0.000 -0.000 -0.000  0.000
      -0.000  0.000 -0.000 -0.000 -0.000  0.000  0.000 -0.000 -0.000  0.000
      -0.003  0.531  0.560  0.436 -0.463 -0.000 -0.006  0.000 -0.004 -0.001
     occupations, | n_(i1, i2)^(sigma1, sigma2) |:
       0.998  0.000  0.000  0.000  0.000  0.000  0.007  0.007  0.001  0.001
       0.000  0.993  0.001  0.001  0.004  0.008  0.001  0.000  0.005  0.005
       0.000  0.001  0.993  0.004  0.001  0.008  0.000  0.000  0.005  0.005
       0.000  0.001  0.004  0.994  0.001  0.000  0.005  0.005  0.001  0.001
       0.000  0.004  0.001  0.001  0.994  0.000  0.005  0.005  0.001  0.001
       0.000  0.008  0.008  0.000  0.000  0.014  0.000  0.000  0.000  0.000
       0.007  0.001  0.000  0.005  0.005  0.000  0.082  0.003  0.001  0.056
       0.007  0.000  0.000  0.005  0.005  0.000  0.003  0.082  0.056  0.001
       0.001  0.005  0.005  0.001  0.001  0.000  0.001  0.056  0.060  0.004
       0.001  0.005  0.005  0.001  0.001  0.000  0.056  0.001  0.004  0.060
     Atomic magnetic moment mx, my, mz =     0.000000   -0.000418    4.673078
     ------------------------ ATOM    2 ------------------------
     Tr[ns(  2)] (up, down, total) =   0.29984  4.97262  5.27247
     eigenvalues:
       0.014  0.014  0.014  0.128  0.129  0.988  0.992  0.997  0.998  0.998
     eigenvectors (columns):
      -1.000 -0.001  0.000 -0.000 -0.000 -0.009  0.000  0.008 -0.000 -0.000
      -0.000  0.000 -0.000  0.000 -0.000 -0.000  0.000 -0.000 -0.000  0.000
       0.000 -0.467 -0.432 -0.564 -0.527  0.000  0.005 -0.000 -0.005 -0.008
       0.000 -0.532 -0.559  0.436  0.463  0.000  0.006  0.000  0.004 -0.001
      -0.000  0.000 -0.000 -0.000  0.000 -0.000  0.000  0.000  0.000  0.000
       0.000 -0.000  0.000 -0.000  0.000 -0.000 -0.000 -0.000  0.000  0.000
      -0.008  0.006  0.000 -0.000 -0.004  0.531  0.531 -0.468  0.466 -0.000
      -0.000  0.000  0.000 -0.000  0.000 -0.000  0.000  0.000  0.000  0.000
       0.000 -0.000 -0.000 -0.000 -0.000  0.000 -0.000  0.000  0.000  0.000
       0.000 -0.005 -0.000 -0.000 -0.005 -0.468 -0.466 -0.531  0.531 -0.000
     occupations, | n_(i1, i2)^(sigma1, sigma2) |:
       0.014  0.000  0.000  0.000  0.000  0.000  0.008  0.008  0.000  0.000
       0.000  0.082  0.003  0.001  0.056  0.007  0.001  0.001  0.005  0.005
       0.000  0.003  0.082  0.056  0.001  0.007  0.001  0.001  0.005  0.005
       0.000  0.001  0.056  0.060  0.004  0.001  0.005  0.005  0.001  0.001
       0.000  0.056  0.001  0.004  0.060  0.001  0.005  0.005  0.001  0.001
       0.000  0.007  0.007  0.001  0.001  0.998  0.000  0.000  0.000  0.000
       0.008  0.001  0.001  0.005  0.005  0.000  0.993  0.001  0.001  0.004
       0.008  0.001  0.001  0.005  0.005  0.000  0.001  0.993  0.004  0.001
       0.000  0.005  0.005  0.001  0.001  0.000  0.001  0.004  0.994  0.001
       0.000  0.005  0.005  0.001  0.001  0.000  0.004  0.001  0.001  0.994
     Atomic magnetic moment mx, my, mz =    -0.000000    0.000107   -4.672779

     Number of occupied Hubbard levels =   10.5448

     Atomic wfc used for Hubbard projectors are orthogonalized

     Starting wfcs are  176 randomized atomic wfcs +   64 random wfcs
     Checking if some PAW data can be deallocated... 
       PAW data deallocated on   29 nodes for type:  1
       PAW data deallocated on   29 nodes for type:  2
       PAW data deallocated on   22 nodes for type:  3
       PAW data deallocated on   16 nodes for type:  4

     Band Structure Calculation
     Davidson diagonalization with overlap

     Computing kpt #:     1  of    64
     c_bands:  1 eigenvalues not converged
     total cpu time spent up to now is      361.8 secs

     Computing kpt #:     2  of    64
     total cpu time spent up to now is      656.6 secs

     Computing kpt #:     3  of    64
     total cpu time spent up to now is      927.1 secs

     Computing kpt #:     4  of    64
     total cpu time spent up to now is     1221.1 secs

     Computing kpt #:     5  of    64
     total cpu time spent up to now is     1517.2 secs

     Computing kpt #:     6  of    64
     total cpu time spent up to now is     1814.5 secs

     Computing kpt #:     7  of    64
     total cpu time spent up to now is     2043.5 secs

     Computing kpt #:     8  of    64
     total cpu time spent up to now is     2297.1 secs

     Computing kpt #:     9  of    64
     total cpu time spent up to now is     2575.1 secs

     Computing kpt #:    10  of    64
     total cpu time spent up to now is     2841.4 secs

     Computing kpt #:    11  of    64
     c_bands:  2 eigenvalues not converged
     total cpu time spent up to now is     3191.1 secs

     Computing kpt #:    12  of    64
     total cpu time spent up to now is     3420.7 secs

     Computing kpt #:    13  of    64
     total cpu time spent up to now is     3717.5 secs

     Computing kpt #:    14  of    64
     total cpu time spent up to now is     3970.3 secs

     Computing kpt #:    15  of    64
     total cpu time spent up to now is     4260.1 secs

     Computing kpt #:    16  of    64
     total cpu time spent up to now is     4564.9 secs

     Computing kpt #:    17  of    64
     total cpu time spent up to now is     4861.2 secs

     Computing kpt #:    18  of    64
     total cpu time spent up to now is     5157.2 secs

     Computing kpt #:    19  of    64
     total cpu time spent up to now is     5386.4 secs

     Computing kpt #:    20  of    64
     total cpu time spent up to now is     5753.4 secs

     Computing kpt #:    21  of    64
     total cpu time spent up to now is     6049.4 secs

     Computing kpt #:    22  of    64
     total cpu time spent up to now is     6352.4 secs

     Computing kpt #:    23  of    64
     total cpu time spent up to now is     6798.3 secs

     Computing kpt #:    24  of    64
     total cpu time spent up to now is     7250.4 secs

     Computing kpt #:    25  of    64
     total cpu time spent up to now is     7480.8 secs

     Computing kpt #:    26  of    64
     total cpu time spent up to now is     7771.1 secs

     Computing kpt #:    27  of    64
     total cpu time spent up to now is     8085.5 secs

     Computing kpt #:    28  of    64
     total cpu time spent up to now is     8315.5 secs

     Computing kpt #:    29  of    64
     total cpu time spent up to now is     8614.5 secs

     Computing kpt #:    30  of    64
     total cpu time spent up to now is     8910.7 secs

     Computing kpt #:    31  of    64
     total cpu time spent up to now is     9139.4 secs

     Computing kpt #:    32  of    64
     total cpu time spent up to now is     9435.6 secs

     Computing kpt #:    33  of    64
     total cpu time spent up to now is     9829.4 secs

     Computing kpt #:    34  of    64
     total cpu time spent up to now is    10059.3 secs

     Computing kpt #:    35  of    64
     c_bands:  1 eigenvalues not converged
     total cpu time spent up to now is    10407.2 secs

     Computing kpt #:    36  of    64
     total cpu time spent up to now is    10638.2 secs

     Computing kpt #:    37  of    64
     total cpu time spent up to now is    10964.3 secs

     Computing kpt #:    38  of    64
     total cpu time spent up to now is    11254.0 secs

     Computing kpt #:    39  of    64
     total cpu time spent up to now is    11520.9 secs

     Computing kpt #:    40  of    64
     total cpu time spent up to now is    11750.8 secs

     Computing kpt #:    41  of    64
     c_bands:  1 eigenvalues not converged
     total cpu time spent up to now is    12099.4 secs

     Computing kpt #:    42  of    64
     total cpu time spent up to now is    12366.3 secs

     Computing kpt #:    43  of    64
     total cpu time spent up to now is    12643.4 secs

     Computing kpt #:    44  of    64
     total cpu time spent up to now is    12908.6 secs

     Computing kpt #:    45  of    64
     total cpu time spent up to now is    13138.9 secs

     Computing kpt #:    46  of    64
     total cpu time spent up to now is    13366.8 secs

     Computing kpt #:    47  of    64
     total cpu time spent up to now is    13632.3 secs

     Computing kpt #:    48  of    64
     total cpu time spent up to now is    13922.3 secs

     Computing kpt #:    49  of    64
     total cpu time spent up to now is    14217.1 secs

     Computing kpt #:    50  of    64
     total cpu time spent up to now is    14470.2 secs

     Computing kpt #:    51  of    64
     total cpu time spent up to now is    14700.2 secs

     Computing kpt #:    52  of    64
     total cpu time spent up to now is    14997.5 secs

     Computing kpt #:    53  of    64
     total cpu time spent up to now is    15252.6 secs

     Computing kpt #:    54  of    64
     total cpu time spent up to now is    15523.4 secs

     Computing kpt #:    55  of    64
     total cpu time spent up to now is    15753.2 secs

     Computing kpt #:    56  of    64
     total cpu time spent up to now is    16048.9 secs

     Computing kpt #:    57  of    64
     total cpu time spent up to now is    16279.0 secs

     Computing kpt #:    58  of    64
     total cpu time spent up to now is    16558.6 secs

     Computing kpt #:    59  of    64
     total cpu time spent up to now is    16971.1 secs

     Computing kpt #:    60  of    64
     total cpu time spent up to now is    17521.0 secs

     Computing kpt #:    61  of    64
     total cpu time spent up to now is    17815.0 secs

     Computing kpt #:    62  of    64
     total cpu time spent up to now is    18085.0 secs

     Computing kpt #:    63  of    64
     total cpu time spent up to now is    18376.0 secs

     Computing kpt #:    64  of    64
     total cpu time spent up to now is    18679.7 secs

     ethr =  2.17E-08,  avg # of iterations = 55.4

     total cpu time spent up to now is    18679.7 secs

     End of band structure calculation

          k = 0.0000 0.0000 0.0000 ( 23485 PWs)   bands (ev):

   -74.8599 -74.8569 -69.9856 -69.9823 -44.0807 -44.0777 -43.7081 -43.7049
   -43.1668 -43.1638 -39.1469 -39.1436 -38.7645 -38.7611 -38.3916 -38.3883
   -16.8702 -16.8700 -16.8602 -16.8600 -16.8562 -16.8560 -16.8538 -16.8537
   -16.8339 -16.8337 -16.8275 -16.8274 -16.8273 -16.8271 -16.8260 -16.8257
   -13.8915 -13.8913 -13.8843 -13.8842 -13.8808 -13.8807 -13.8746 -13.8743
   -13.8685 -13.8683 -13.8647 -13.8645 -13.8553 -13.8552 -13.8524 -13.8523
   -13.8451 -13.8450 -13.8426 -13.8424 -13.8416 -13.8414 -13.8396 -13.8393
    -5.4189  -5.4162  -5.3860  -5.3835  -5.2019  -5.1968  -5.1474  -5.1426
    -3.7944  -3.7917  -3.5810  -3.5770  -3.2904  -3.2899  -3.0128  -3.0114
    -1.4312  -1.4309  -1.0731  -1.0722  -0.7401  -0.7365  -0.4425  -0.4400
     1.8319   1.8356   1.8646   1.8680   1.8821   1.8871   2.0916   2.0954
     2.1026   2.1065   4.0045   4.0058   4.2708   4.2768   4.7272   4.7289
     5.2543   5.2657   5.2759   5.2846   5.5574   5.5587   5.7872   5.7913
     5.8189   5.8299   6.1572   6.1736   6.2653   6.2679   6.3223   6.3357
     6.4016   6.4087   6.4097   6.4216   6.4787   6.4978   6.6817   6.6957
     6.7733   6.7952   6.8673   6.8783   6.9500   6.9599   7.0389   7.0407
     7.2534   7.2600   7.3387   7.3513   7.5533   7.5555   7.5666   7.6062
     7.6911   7.6986   7.8920   7.9062   7.9325   7.9376   8.0673   8.0791
     8.2145   8.2421   9.0127   9.0380   9.3183   9.3330   9.3579   9.3782
     9.4422   9.4675   9.4794   9.5364   9.6357   9.6682   9.8912   9.9261
     9.9302   9.9413  10.0453  10.0488  10.1231  10.1276  10.1315  10.1348
    10.6485  10.6555  10.9228  10.9333  11.4209  11.4273  11.6814  11.6842
    11.7314  11.7432  12.5811  12.5970  12.6613  12.6795  12.8146  12.8253
    13.2563  13.2569  13.3051  13.3167  13.3483  13.3602  13.4124  13.4239
    13.5610  13.5911  13.7512  13.7572  13.7913  13.7995  13.9237  13.9303
    13.9974  14.0074  14.1843  14.2123  14.2225  14.2475  14.2637  14.2734
    14.3298  14.3434  14.7187  14.7323  14.8266  14.8675  14.8979  14.9365
    15.1541  15.1709  15.2119  15.2192  15.2661  15.2823  15.3641  15.3706
    15.5626  15.5656  15.6371  15.6385  15.6739  15.6863  15.7199  15.7324
    16.1106  16.1244  16.3150  16.3281  16.3432  16.3521  16.5049  16.5134

     occupation numbers 
     1.0000   1.0000   1.0000   1.0000   1.0000   1.0000   1.0000   1.0000
     1.0000   1.0000   1.0000   1.0000   1.0000   1.0000   1.0000   1.0000
     1.0000   1.0000   1.0000   1.0000   1.0000   1.0000   1.0000   1.0000
     1.0000   1.0000   1.0000   1.0000   1.0000   1.0000   1.0000   1.0000
     1.0000   1.0000   1.0000   1.0000   1.0000   1.0000   1.0000   1.0000
     1.0000   1.0000   1.0000   1.0000   1.0000   1.0000   1.0000   1.0000
     1.0000   1.0000   1.0000   1.0000   1.0000   1.0000   1.0000   1.0000
     1.0000   1.0000   1.0000   1.0000   1.0000   1.0000   1.0000   1.0000
     1.0000   1.0000   1.0000   1.0000   1.0000   1.0000   1.0000   1.0000
     1.0000   1.0000   1.0000   1.0000   1.0000   1.0000   1.0000   1.0000
     1.0000   1.0000   1.0000   1.0000   1.0000   1.0000   1.0000   1.0000
     1.0000   1.0000   1.0000   1.0000   1.0000   1.0000   1.0000   1.0000
     1.0000   1.0000   1.0000   1.0000   1.0000   1.0000   1.0000   1.0000
     1.0000   1.0000   1.0000   1.0000   1.0000   1.0000   1.0000   1.0000
     1.0000   1.0000   1.0000   1.0000   1.0000   1.0000   1.0001   1.0001
     1.0006   1.0009   1.0028   1.0033   1.0089   1.0100   1.0242   1.0246
     1.0832   1.0833   1.0566   1.0466   0.6436   0.6375   0.6069   0.4978
     0.2891   0.2731   0.0397   0.0333   0.0236   0.0220   0.0030   0.0025
     0.0002   0.0001   0.0000   0.0000   0.0000   0.0000   0.0000   0.0000
     0.0000   0.0000   0.0000   0.0000   0.0000   0.0000   0.0000   0.0000
     0.0000   0.0000   0.0000   0.0000   0.0000   0.0000   0.0000   0.0000
     0.0000   0.0000   0.0000   0.0000   0.0000   0.0000   0.0000   0.0000
     0.0000   0.0000   0.0000   0.0000   0.0000   0.0000   0.0000   0.0000
     0.0000   0.0000   0.0000   0.0000   0.0000   0.0000   0.0000   0.0000
     0.0000   0.0000   0.0000   0.0000   0.0000   0.0000   0.0000   0.0000
     0.0000   0.0000   0.0000   0.0000   0.0000   0.0000   0.0000   0.0000
     0.0000   0.0000   0.0000   0.0000   0.0000   0.0000   0.0000   0.0000
     0.0000   0.0000   0.0000   0.0000   0.0000   0.0000   0.0000   0.0000
     0.0000   0.0000   0.0000   0.0000   0.0000   0.0000   0.0000   0.0000
     0.0000   0.0000   0.0000   0.0000   0.0000   0.0000   0.0000   0.0000

          k =-1.5806-0.9125 0.0837 ( 23485 PWs)   bands (ev):

   -74.8599 -74.8569 -69.9856 -69.9823 -44.0808 -44.0778 -43.7081 -43.7049
   -43.1670 -43.1640 -39.1472 -39.1438 -38.7644 -38.7610 -38.3919 -38.3886
   -16.8686 -16.8685 -16.8606 -16.8601 -16.8568 -16.8562 -16.8521 -16.8518
   -16.8323 -16.8323 -16.8278 -16.8278 -16.8261 -16.8260 -16.8254 -16.8254
   -13.8910 -13.8908 -13.8871 -13.8868 -13.8774 -13.8772 -13.8723 -13.8715
   -13.8672 -13.8668 -13.8653 -13.8651 -13.8548 -13.8545 -13.8516 -13.8512
   -13.8471 -13.8469 -13.8438 -13.8437 -13.8386 -13.8385 -13.8364 -13.8364
    -4.8826  -4.8800  -4.8560  -4.8535  -4.6795  -4.6745  -4.6355  -4.6304
    -3.4207  -3.4181  -3.2642  -3.2603  -3.0278  -3.0251  -2.8393  -2.8344
    -1.6199  -1.6166  -1.5065  -1.5032  -1.2233  -1.2203  -1.1594  -1.1540
     1.8759   1.8804   1.9212   1.9251   1.9740   1.9787   2.0658   2.0706
     2.1143   2.1181   3.3958   3.4043   3.4434   3.4463   3.8574   3.8624
     3.9843   3.9883   4.1729   4.1756   4.2794   4.2975   4.5407   4.5481
     4.5988   4.6240   5.1009   5.1051   5.1936   5.2039   5.2959   5.3053
     5.3707   5.3772   5.6940   5.7058   5.8074   5.8280   5.9477   5.9680
     6.0715   6.0830   6.3159   6.3206   6.4146   6.4166   6.4860   6.4896
     6.6775   6.6899   6.7982   6.7988   7.0757   7.0842   7.2368   7.2518
     7.3783   7.3875   8.4193   8.4273   8.4511   8.4639   9.0825   9.0867
     9.1090   9.1164   9.4471   9.4794   9.5895   9.6002   9.7629   9.7702
     9.8418   9.8467   9.9101   9.9166  10.1557  10.1697  10.2387  10.2524
    10.3965  10.4031  10.4711  10.4752  10.5528  10.5581  10.7394  10.7444
    11.0192  11.0371  11.2712  11.2848  11.5914  11.6021  11.9101  11.9192
    12.1064  12.1155  12.3604  12.3705  12.5400  12.5487  12.8089  12.8315
    13.3964  13.4050  13.4492  13.4525  13.5834  13.5851  13.6181  13.6323
    13.8068  13.8178  14.1233  14.1305  14.1817  14.1956  14.4016  14.4083
    14.5156  14.5351  14.7266  14.7459  14.7847  14.7989  14.8076  14.8149
    14.9798  14.9954  15.0934  15.1009  15.3057  15.3154  15.5940  15.6177
    15.6393  15.6749  15.9980  16.0153  16.0915  16.1066  16.1442  16.1569
    16.3825  16.3907  16.6751  16.6947  16.8174  16.8244  16.9209  16.9311
    17.1522  17.1651  17.2687  17.2776  17.3107  17.3265  17.4336  17.4406

     occupation numbers 
     1.0000   1.0000   1.0000   1.0000   1.0000   1.0000   1.0000   1.0000
     1.0000   1.0000   1.0000   1.0000   1.0000   1.0000   1.0000   1.0000
     1.0000   1.0000   1.0000   1.0000   1.0000   1.0000   1.0000   1.0000
     1.0000   1.0000   1.0000   1.0000   1.0000   1.0000   1.0000   1.0000
     1.0000   1.0000   1.0000   1.0000   1.0000   1.0000   1.0000   1.0000
     1.0000   1.0000   1.0000   1.0000   1.0000   1.0000   1.0000   1.0000
     1.0000   1.0000   1.0000   1.0000   1.0000   1.0000   1.0000   1.0000
     1.0000   1.0000   1.0000   1.0000   1.0000   1.0000   1.0000   1.0000
     1.0000   1.0000   1.0000   1.0000   1.0000   1.0000   1.0000   1.0000
     1.0000   1.0000   1.0000   1.0000   1.0000   1.0000   1.0000   1.0000
     1.0000   1.0000   1.0000   1.0000   1.0000   1.0000   1.0000   1.0000
     1.0000   1.0000   1.0000   1.0000   1.0000   1.0000   1.0000   1.0000
     1.0000   1.0000   1.0000   1.0000   1.0000   1.0000   1.0000   1.0000
     1.0000   1.0000   1.0000   1.0000   1.0000   1.0000   1.0000   1.0000
     1.0000   1.0000   1.0000   1.0000   1.0000   1.0000   1.0000   1.0000
     1.0000   1.0000   1.0000   1.0000   1.0000   1.0000   1.0000   1.0000
     1.0001   1.0001   1.0009   1.0009   1.0340   1.0366   1.0819   1.0832
     1.0185   1.0070   0.0000   0.0000   0.0000   0.0000   0.0000   0.0000
     0.0000   0.0000   0.0000   0.0000   0.0000   0.0000   0.0000   0.0000
     0.0000   0.0000   0.0000   0.0000   0.0000   0.0000   0.0000   0.0000
     0.0000   0.0000   0.0000   0.0000   0.0000   0.0000   0.0000   0.0000
     0.0000   0.0000   0.0000   0.0000   0.0000   0.0000   0.0000   0.0000
     0.0000   0.0000   0.0000   0.0000   0.0000   0.0000   0.0000   0.0000
     0.0000   0.0000   0.0000   0.0000   0.0000   0.0000   0.0000   0.0000
     0.0000   0.0000   0.0000   0.0000   0.0000   0.0000   0.0000   0.0000
     0.0000   0.0000   0.0000   0.0000   0.0000   0.0000   0.0000   0.0000
     0.0000   0.0000   0.0000   0.0000   0.0000   0.0000   0.0000   0.0000
     0.0000   0.0000   0.0000   0.0000   0.0000   0.0000   0.0000   0.0000
     0.0000   0.0000   0.0000   0.0000   0.0000   0.0000   0.0000   0.0000
     0.0000   0.0000   0.0000   0.0000   0.0000   0.0000   0.0000   0.0000

          k =-3.1612-1.8251 0.1674 ( 23516 PWs)   bands (ev):

   -74.8599 -74.8569 -69.9855 -69.9822 -44.0810 -44.0780 -43.7081 -43.7048
   -43.1672 -43.1642 -39.1474 -39.1440 -38.7643 -38.7610 -38.3922 -38.3889
   -16.8671 -16.8671 -16.8606 -16.8605 -16.8570 -16.8569 -16.8502 -16.8502
   -16.8311 -16.8311 -16.8282 -16.8282 -16.8261 -16.8261 -16.8238 -16.8237
   -13.8943 -13.8942 -13.8875 -13.8874 -13.8773 -13.8772 -13.8696 -13.8695
   -13.8652 -13.8652 -13.8613 -13.8613 -13.8572 -13.8572 -13.8544 -13.8544
   -13.8467 -13.8466 -13.8435 -13.8435 -13.8335 -13.8335 -13.8322 -13.8322
    -3.7578  -3.7533  -3.7480  -3.7456  -3.7048  -3.7035  -3.6970  -3.6884
    -3.1307  -3.1268  -3.1221  -3.1121  -3.0314  -3.0301  -2.9557  -2.9417
    -2.3273  -2.3236  -2.2859  -2.2819  -2.1209  -2.1146  -2.0920  -2.0870
     1.7599   1.7659   1.9067   1.9109   1.9596   1.9652   2.2029   2.2064
     2.2934   2.2977   2.6118   2.6177   2.7182   2.7301   2.9987   2.9989
     3.1379   3.1506   3.6273   3.6418   3.7226   3.7263   4.0704   4.0789
     4.0887   4.0967   4.5784   4.5803   4.6079   4.6275   4.7626   4.7689
     4.7903   4.8087   4.9352   4.9381   4.9482   4.9756   5.4225   5.4303
     5.4754   5.4759   5.8930   5.9041   5.9256   5.9261   6.1007   6.1099
     6.3452   6.3524   6.4341   6.4358   6.7290   6.7312   7.0782   7.0862
     7.2055   7.2156   8.2699   8.2827   8.4324   8.4359   8.8728   8.8890
     8.9325   8.9352   9.3102   9.3199   9.5055   9.5147   9.6623   9.6657
     9.7539   9.7570   9.8177   9.8448  10.0963  10.0987  10.2267  10.2286
    10.4348  10.4402  10.5338  10.5354  10.6136  10.6186  10.6988  10.7029
    11.1196  11.1323  11.2840  11.2871  11.5381  11.5496  11.7000  11.7004
    11.7315  11.7479  12.1020  12.1116  12.5489  12.5523  13.1506  13.1725
    13.5439  13.5489  13.7300  13.7335  14.2511  14.2619  14.4583  14.4603
    14.6888  14.7180  14.8911  14.8950  15.5507  15.5554  15.7340  15.7359
    16.0635  16.0698  16.2507  16.2600  16.5087  16.5246  16.5853  16.5947
    16.7577  16.7609  16.8598  16.8624  17.0998  17.1224  17.1589  17.1778
    17.5950  17.6145  17.6968  17.7006  17.9236  17.9383  17.9758  17.9800
    18.0688  18.0770  18.0985  18.1076  18.1281  18.1393  18.2320  18.2480
    18.2976  18.3008  18.3154  18.3201  18.3935  18.4003  18.4703  18.4913

     occupation numbers 
     1.0000   1.0000   1.0000   1.0000   1.0000   1.0000   1.0000   1.0000
     1.0000   1.0000   1.0000   1.0000   1.0000   1.0000   1.0000   1.0000
     1.0000   1.0000   1.0000   1.0000   1.0000   1.0000   1.0000   1.0000
     1.0000   1.0000   1.0000   1.0000   1.0000   1.0000   1.0000   1.0000
     1.0000   1.0000   1.0000   1.0000   1.0000   1.0000   1.0000   1.0000
     1.0000   1.0000   1.0000   1.0000   1.0000   1.0000   1.0000   1.0000
     1.0000   1.0000   1.0000   1.0000   1.0000   1.0000   1.0000   1.0000
     1.0000   1.0000   1.0000   1.0000   1.0000   1.0000   1.0000   1.0000
     1.0000   1.0000   1.0000   1.0000   1.0000   1.0000   1.0000   1.0000
     1.0000   1.0000   1.0000   1.0000   1.0000   1.0000   1.0000   1.0000
     1.0000   1.0000   1.0000   1.0000   1.0000   1.0000   1.0000   1.0000
     1.0000   1.0000   1.0000   1.0000   1.0000   1.0000   1.0000   1.0000
     1.0000   1.0000   1.0000   1.0000   1.0000   1.0000   1.0000   1.0000
     1.0000   1.0000   1.0000   1.0000   1.0000   1.0000   1.0000   1.0000
     1.0000   1.0000   1.0000   1.0000   1.0000   1.0000   1.0000   1.0000
     1.0000   1.0000   1.0000   1.0000   1.0000   1.0000   1.0000   1.0000
     1.0000   1.0000   1.0000   1.0000   1.0003   1.0003   1.0347   1.0372
     1.0758   1.0782   0.0001   0.0000   0.0000   0.0000   0.0000   0.0000
     0.0000   0.0000   0.0000   0.0000   0.0000   0.0000   0.0000   0.0000
     0.0000   0.0000   0.0000   0.0000   0.0000   0.0000   0.0000   0.0000
     0.0000   0.0000   0.0000   0.0000   0.0000   0.0000   0.0000   0.0000
     0.0000   0.0000   0.0000   0.0000   0.0000   0.0000   0.0000   0.0000
     0.0000   0.0000   0.0000   0.0000   0.0000   0.0000   0.0000   0.0000
     0.0000   0.0000   0.0000   0.0000   0.0000   0.0000   0.0000   0.0000
     0.0000   0.0000   0.0000   0.0000   0.0000   0.0000   0.0000   0.0000
     0.0000   0.0000   0.0000   0.0000   0.0000   0.0000   0.0000   0.0000
     0.0000   0.0000   0.0000   0.0000   0.0000   0.0000   0.0000   0.0000
     0.0000   0.0000   0.0000   0.0000   0.0000   0.0000   0.0000   0.0000
     0.0000   0.0000   0.0000   0.0000   0.0000   0.0000   0.0000   0.0000
     0.0000   0.0000   0.0000   0.0000   0.0000   0.0000   0.0000   0.0000

          k =-4.7417-2.7376 0.2510 ( 23485 PWs)   bands (ev):

   -74.8599 -74.8569 -69.9856 -69.9823 -44.0808 -44.0778 -43.7081 -43.7049
   -43.1670 -43.1640 -39.1472 -39.1438 -38.7644 -38.7610 -38.3919 -38.3886
   -16.8686 -16.8684 -16.8606 -16.8601 -16.8568 -16.8562 -16.8521 -16.8518
   -16.8323 -16.8323 -16.8278 -16.8278 -16.8261 -16.8260 -16.8254 -16.8254
   -13.8910 -13.8909 -13.8870 -13.8869 -13.8774 -13.8773 -13.8723 -13.8715
   -13.8673 -13.8668 -13.8653 -13.8651 -13.8547 -13.8544 -13.8516 -13.8512
   -13.8471 -13.8469 -13.8438 -13.8437 -13.8386 -13.8385 -13.8364 -13.8364
    -4.8826  -4.8800  -4.8560  -4.8535  -4.6795  -4.6745  -4.6355  -4.6304
    -3.4207  -3.4181  -3.2642  -3.2603  -3.0278  -3.0251  -2.8393  -2.8344
    -1.6199  -1.6166  -1.5065  -1.5032  -1.2233  -1.2203  -1.1594  -1.1540
     1.8759   1.8804   1.9212   1.9251   1.9740   1.9787   2.0658   2.0706
     2.1143   2.1181   3.3958   3.4043   3.4434   3.4463   3.8574   3.8624
     3.9843   3.9883   4.1729   4.1756   4.2794   4.2975   4.5407   4.5481
     4.5988   4.6240   5.1009   5.1051   5.1936   5.2039   5.2959   5.3053
     5.3707   5.3772   5.6940   5.7058   5.8074   5.8280   5.9477   5.9680
     6.0715   6.0830   6.3159   6.3206   6.4146   6.4166   6.4860   6.4896
     6.6775   6.6899   6.7982   6.7988   7.0757   7.0842   7.2368   7.2518
     7.3783   7.3875   8.4193   8.4273   8.4511   8.4639   9.0825   9.0867
     9.1090   9.1164   9.4471   9.4794   9.5895   9.6002   9.7629   9.7702
     9.8418   9.8467   9.9101   9.9166  10.1557  10.1696  10.2387  10.2524
    10.3965  10.4031  10.4711  10.4752  10.5528  10.5581  10.7394  10.7444
    11.0192  11.0371  11.2712  11.2848  11.5914  11.6021  11.9101  11.9192
    12.1064  12.1155  12.3604  12.3705  12.5400  12.5487  12.8089  12.8315
    13.3964  13.4050  13.4492  13.4525  13.5834  13.5851  13.6181  13.6323
    13.8068  13.8178  14.1233  14.1305  14.1817  14.1956  14.4016  14.4083
    14.5156  14.5351  14.7266  14.7459  14.7847  14.7989  14.8076  14.8149
    14.9798  14.9954  15.0934  15.1009  15.3057  15.3154  15.5940  15.6177
    15.6393  15.6749  15.9980  16.0153  16.0915  16.1066  16.1442  16.1569
    16.3825  16.3907  16.6751  16.6947  16.8174  16.8244  16.9209  16.9311
    17.1522  17.1651  17.2687  17.2776  17.3107  17.3265  17.4336  17.4406

     occupation numbers 
     1.0000   1.0000   1.0000   1.0000   1.0000   1.0000   1.0000   1.0000
     1.0000   1.0000   1.0000   1.0000   1.0000   1.0000   1.0000   1.0000
     1.0000   1.0000   1.0000   1.0000   1.0000   1.0000   1.0000   1.0000
     1.0000   1.0000   1.0000   1.0000   1.0000   1.0000   1.0000   1.0000
     1.0000   1.0000   1.0000   1.0000   1.0000   1.0000   1.0000   1.0000
     1.0000   1.0000   1.0000   1.0000   1.0000   1.0000   1.0000   1.0000
     1.0000   1.0000   1.0000   1.0000   1.0000   1.0000   1.0000   1.0000
     1.0000   1.0000   1.0000   1.0000   1.0000   1.0000   1.0000   1.0000
     1.0000   1.0000   1.0000   1.0000   1.0000   1.0000   1.0000   1.0000
     1.0000   1.0000   1.0000   1.0000   1.0000   1.0000   1.0000   1.0000
     1.0000   1.0000   1.0000   1.0000   1.0000   1.0000   1.0000   1.0000
     1.0000   1.0000   1.0000   1.0000   1.0000   1.0000   1.0000   1.0000
     1.0000   1.0000   1.0000   1.0000   1.0000   1.0000   1.0000   1.0000
     1.0000   1.0000   1.0000   1.0000   1.0000   1.0000   1.0000   1.0000
     1.0000   1.0000   1.0000   1.0000   1.0000   1.0000   1.0000   1.0000
     1.0000   1.0000   1.0000   1.0000   1.0000   1.0000   1.0000   1.0000
     1.0001   1.0001   1.0009   1.0009   1.0340   1.0366   1.0819   1.0832
     1.0185   1.0070   0.0000   0.0000   0.0000   0.0000   0.0000   0.0000
     0.0000   0.0000   0.0000   0.0000   0.0000   0.0000   0.0000   0.0000
     0.0000   0.0000   0.0000   0.0000   0.0000   0.0000   0.0000   0.0000
     0.0000   0.0000   0.0000   0.0000   0.0000   0.0000   0.0000   0.0000
     0.0000   0.0000   0.0000   0.0000   0.0000   0.0000   0.0000   0.0000
     0.0000   0.0000   0.0000   0.0000   0.0000   0.0000   0.0000   0.0000
     0.0000   0.0000   0.0000   0.0000   0.0000   0.0000   0.0000   0.0000
     0.0000   0.0000   0.0000   0.0000   0.0000   0.0000   0.0000   0.0000
     0.0000   0.0000   0.0000   0.0000   0.0000   0.0000   0.0000   0.0000
     0.0000   0.0000   0.0000   0.0000   0.0000   0.0000   0.0000   0.0000
     0.0000   0.0000   0.0000   0.0000   0.0000   0.0000   0.0000   0.0000
     0.0000   0.0000   0.0000   0.0000   0.0000   0.0000   0.0000   0.0000
     0.0000   0.0000   0.0000   0.0000   0.0000   0.0000   0.0000   0.0000

          k = 0.0000 1.8251 0.0837 ( 23485 PWs)   bands (ev):

   -74.8599 -74.8569 -69.9856 -69.9823 -44.0808 -44.0778 -43.7081 -43.7049
   -43.1670 -43.1640 -39.1472 -39.1438 -38.7644 -38.7610 -38.3919 -38.3886
   -16.8688 -16.8687 -16.8602 -16.8601 -16.8561 -16.8560 -16.8525 -16.8524
   -16.8324 -16.8323 -16.8278 -16.8278 -16.8262 -16.8261 -16.8254 -16.8254
   -13.8909 -13.8908 -13.8862 -13.8862 -13.8779 -13.8778 -13.8736 -13.8735
   -13.8663 -13.8663 -13.8647 -13.8646 -13.8552 -13.8552 -13.8506 -13.8505
   -13.8472 -13.8471 -13.8436 -13.8435 -13.8391 -13.8390 -13.8362 -13.8362
    -4.8826  -4.8801  -4.8559  -4.8535  -4.6795  -4.6745  -4.6355  -4.6304
    -3.4206  -3.4182  -3.2642  -3.2603  -3.0278  -3.0251  -2.8393  -2.8344
    -1.6188  -1.6176  -1.5055  -1.5042  -1.2230  -1.2207  -1.1593  -1.1542
     1.8759   1.8804   1.9212   1.9251   1.9739   1.9787   2.0658   2.0707
     2.1143   2.1181   3.3961   3.4036   3.4435   3.4465   3.8572   3.8630
     3.9842   3.9881   4.1735   4.1751   4.2791   4.2975   4.5406   4.5478
     4.5987   4.6241   5.1003   5.1063   5.1928   5.2047   5.2950   5.3054
     5.3705   5.3777   5.6937   5.7062   5.8072   5.8284   5.9471   5.9682
     6.0711   6.0832   6.3158   6.3208   6.4149   6.4163   6.4860   6.4899
     6.6774   6.6899   6.7983   6.7987   7.0759   7.0840   7.2377   7.2510
     7.3783   7.3877   8.4189   8.4287   8.4501   8.4641   9.0831   9.0866
     9.1083   9.1168   9.4462   9.4799   9.5888   9.6013   9.7629   9.7703
     9.8413   9.8470   9.9099   9.9168  10.1555  10.1703  10.2379  10.2528
    10.3964  10.4031  10.4705  10.4754  10.5524  10.5581  10.7381  10.7459
    11.0188  11.0374  11.2709  11.2847  11.5923  11.6021  11.9092  11.9196
    12.1056  12.1154  12.3610  12.3705  12.5396  12.5501  12.8098  12.8316
    13.3959  13.4045  13.4493  13.4521  13.5832  13.5853  13.6169  13.6329
    13.8073  13.8175  14.1259  14.1299  14.1817  14.1951  14.4011  14.4084
    14.5186  14.5328  14.7273  14.7437  14.7858  14.7998  14.8081  14.8138
    14.9825  14.9942  15.0932  15.1001  15.3083  15.3131  15.5915  15.6194
    15.6419  15.6730  16.0000  16.0151  16.0891  16.1078  16.1447  16.1553
    16.3807  16.3917  16.6754  16.6939  16.8171  16.8255  16.9220  16.9302
    17.1555  17.1623  17.2667  17.2778  17.3113  17.3259  17.4335  17.4417

     occupation numbers 
     1.0000   1.0000   1.0000   1.0000   1.0000   1.0000   1.0000   1.0000
     1.0000   1.0000   1.0000   1.0000   1.0000   1.0000   1.0000   1.0000
     1.0000   1.0000   1.0000   1.0000   1.0000   1.0000   1.0000   1.0000
     1.0000   1.0000   1.0000   1.0000   1.0000   1.0000   1.0000   1.0000
     1.0000   1.0000   1.0000   1.0000   1.0000   1.0000   1.0000   1.0000
     1.0000   1.0000   1.0000   1.0000   1.0000   1.0000   1.0000   1.0000
     1.0000   1.0000   1.0000   1.0000   1.0000   1.0000   1.0000   1.0000
     1.0000   1.0000   1.0000   1.0000   1.0000   1.0000   1.0000   1.0000
     1.0000   1.0000   1.0000   1.0000   1.0000   1.0000   1.0000   1.0000
     1.0000   1.0000   1.0000   1.0000   1.0000   1.0000   1.0000   1.0000
     1.0000   1.0000   1.0000   1.0000   1.0000   1.0000   1.0000   1.0000
     1.0000   1.0000   1.0000   1.0000   1.0000   1.0000   1.0000   1.0000
     1.0000   1.0000   1.0000   1.0000   1.0000   1.0000   1.0000   1.0000
     1.0000   1.0000   1.0000   1.0000   1.0000   1.0000   1.0000   1.0000
     1.0000   1.0000   1.0000   1.0000   1.0000   1.0000   1.0000   1.0000
     1.0000   1.0000   1.0000   1.0000   1.0000   1.0000   1.0000   1.0000
     1.0001   1.0001   1.0009   1.0009   1.0341   1.0365   1.0820   1.0831
     1.0186   1.0068   0.0000   0.0000   0.0000   0.0000   0.0000   0.0000
     0.0000   0.0000   0.0000   0.0000   0.0000   0.0000   0.0000   0.0000
     0.0000   0.0000   0.0000   0.0000   0.0000   0.0000   0.0000   0.0000
     0.0000   0.0000   0.0000   0.0000   0.0000   0.0000   0.0000   0.0000
     0.0000   0.0000   0.0000   0.0000   0.0000   0.0000   0.0000   0.0000
     0.0000   0.0000   0.0000   0.0000   0.0000   0.0000   0.0000   0.0000
     0.0000   0.0000   0.0000   0.0000   0.0000   0.0000   0.0000   0.0000
     0.0000   0.0000   0.0000   0.0000   0.0000   0.0000   0.0000   0.0000
     0.0000   0.0000   0.0000   0.0000   0.0000   0.0000   0.0000   0.0000
     0.0000   0.0000   0.0000   0.0000   0.0000   0.0000   0.0000   0.0000
     0.0000   0.0000   0.0000   0.0000   0.0000   0.0000   0.0000   0.0000
     0.0000   0.0000   0.0000   0.0000   0.0000   0.0000   0.0000   0.0000
     0.0000   0.0000   0.0000   0.0000   0.0000   0.0000   0.0000   0.0000

          k =-1.5806 0.9125 0.1674 ( 23458 PWs)   bands (ev):

   -74.8599 -74.8569 -69.9855 -69.9823 -44.0808 -44.0778 -43.7081 -43.7049
   -43.1670 -43.1640 -39.1472 -39.1438 -38.7644 -38.7610 -38.3919 -38.3886
   -16.8685 -16.8684 -16.8606 -16.8601 -16.8567 -16.8562 -16.8520 -16.8518
   -16.8323 -16.8322 -16.8278 -16.8277 -16.8261 -16.8260 -16.8254 -16.8253
   -13.8909 -13.8908 -13.8870 -13.8869 -13.8773 -13.8772 -13.8723 -13.8714
   -13.8672 -13.8667 -13.8653 -13.8651 -13.8547 -13.8544 -13.8516 -13.8512
   -13.8471 -13.8469 -13.8437 -13.8437 -13.8385 -13.8385 -13.8364 -13.8363
    -4.8823  -4.8797  -4.8564  -4.8539  -4.6790  -4.6740  -4.6359  -4.6307
    -3.4233  -3.4208  -3.2557  -3.2518  -3.0402  -3.0377  -2.8317  -2.8270
    -1.6394  -1.6360  -1.4747  -1.4710  -1.2523  -1.2483  -1.1439  -1.1392
     1.8759   1.8805   1.9212   1.9252   1.9740   1.9787   2.0658   2.0706
     2.1143   2.1181   3.3795   3.3900   3.4652   3.4719   3.8167   3.8260
     4.0212   4.0295   4.1958   4.1993   4.2386   4.2625   4.5461   4.5501
     4.6090   4.6348   5.0796   5.0886   5.1721   5.1794   5.2838   5.2969
     5.3994   5.4068   5.7510   5.7658   5.8017   5.8177   5.9734   5.9837
     6.0642   6.0725   6.2796   6.2841   6.3327   6.3408   6.5194   6.5241
     6.6417   6.6511   6.8753   6.8836   7.0830   7.0862   7.2048   7.2189
     7.4154   7.4234   8.3295   8.3393   8.5200   8.5341   9.0441   9.0489
     9.1578   9.1599   9.3796   9.4143   9.6176   9.6217   9.7910   9.8020
     9.8348   9.8466  10.0113  10.0298  10.1157  10.1242  10.2307  10.2452
    10.3659  10.3732  10.4122  10.4154  10.5795  10.5833  10.7301  10.7403
    11.0216  11.0398  11.2820  11.2978  11.6065  11.6169  11.9067  11.9126
    12.1411  12.1502  12.3345  12.3423  12.5096  12.5190  12.8132  12.8352
    13.4214  13.4268  13.4674  13.4718  13.5167  13.5260  13.6404  13.6451
    13.8824  13.8978  14.1366  14.1400  14.2203  14.2234  14.2683  14.2781
    14.5003  14.5200  14.6829  14.6993  14.7701  14.7783  14.8393  14.8428
    14.9921  14.9929  15.1840  15.1889  15.3550  15.3649  15.5290  15.5355
    15.6492  15.6660  16.0356  16.0407  16.1644  16.1683  16.2085  16.2239
    16.2913  16.3142  16.4250  16.4332  16.9546  16.9586  17.0030  17.0078
    17.1622  17.1714  17.2108  17.2327  17.2922  17.3011  17.4573  17.4762

     occupation numbers 
     1.0000   1.0000   1.0000   1.0000   1.0000   1.0000   1.0000   1.0000
     1.0000   1.0000   1.0000   1.0000   1.0000   1.0000   1.0000   1.0000
     1.0000   1.0000   1.0000   1.0000   1.0000   1.0000   1.0000   1.0000
     1.0000   1.0000   1.0000   1.0000   1.0000   1.0000   1.0000   1.0000
     1.0000   1.0000   1.0000   1.0000   1.0000   1.0000   1.0000   1.0000
     1.0000   1.0000   1.0000   1.0000   1.0000   1.0000   1.0000   1.0000
     1.0000   1.0000   1.0000   1.0000   1.0000   1.0000   1.0000   1.0000
     1.0000   1.0000   1.0000   1.0000   1.0000   1.0000   1.0000   1.0000
     1.0000   1.0000   1.0000   1.0000   1.0000   1.0000   1.0000   1.0000
     1.0000   1.0000   1.0000   1.0000   1.0000   1.0000   1.0000   1.0000
     1.0000   1.0000   1.0000   1.0000   1.0000   1.0000   1.0000   1.0000
     1.0000   1.0000   1.0000   1.0000   1.0000   1.0000   1.0000   1.0000
     1.0000   1.0000   1.0000   1.0000   1.0000   1.0000   1.0000   1.0000
     1.0000   1.0000   1.0000   1.0000   1.0000   1.0000   1.0000   1.0000
     1.0000   1.0000   1.0000   1.0000   1.0000   1.0000   1.0000   1.0000
     1.0000   1.0000   1.0000   1.0000   1.0000   1.0000   1.0000   1.0000
     1.0000   1.0001   1.0032   1.0036   1.0362   1.0372   1.0756   1.0789
     0.9655   0.9518   0.0000   0.0000   0.0000   0.0000   0.0000   0.0000
     0.0000   0.0000   0.0000   0.0000   0.0000   0.0000   0.0000   0.0000
     0.0000   0.0000   0.0000   0.0000   0.0000   0.0000   0.0000   0.0000
     0.0000   0.0000   0.0000   0.0000   0.0000   0.0000   0.0000   0.0000
     0.0000   0.0000   0.0000   0.0000   0.0000   0.0000   0.0000   0.0000
     0.0000   0.0000   0.0000   0.0000   0.0000   0.0000   0.0000   0.0000
     0.0000   0.0000   0.0000   0.0000   0.0000   0.0000   0.0000   0.0000
     0.0000   0.0000   0.0000   0.0000   0.0000   0.0000   0.0000   0.0000
     0.0000   0.0000   0.0000   0.0000   0.0000   0.0000   0.0000   0.0000
     0.0000   0.0000   0.0000   0.0000   0.0000   0.0000   0.0000   0.0000
     0.0000   0.0000   0.0000   0.0000   0.0000   0.0000   0.0000   0.0000
     0.0000   0.0000   0.0000   0.0000   0.0000   0.0000   0.0000   0.0000
     0.0000   0.0000   0.0000   0.0000   0.0000   0.0000   0.0000   0.0000

          k =-3.1612 0.0000 0.2510 ( 23534 PWs)   bands (ev):

   -74.8599 -74.8569 -69.9855 -69.9823 -44.0810 -44.0780 -43.7081 -43.7048
   -43.1672 -43.1642 -39.1474 -39.1440 -38.7643 -38.7610 -38.3922 -38.3889
   -16.8673 -16.8666 -16.8613 -16.8603 -16.8572 -16.8563 -16.8509 -16.8499
   -16.8311 -16.8309 -16.8283 -16.8275 -16.8266 -16.8260 -16.8241 -16.8238
   -13.8937 -13.8899 -13.8896 -13.8854 -13.8772 -13.8726 -13.8725 -13.8695
   -13.8673 -13.8669 -13.8631 -13.8630 -13.8558 -13.8532 -13.8530 -13.8519
   -13.8472 -13.8470 -13.8452 -13.8437 -13.8356 -13.8354 -13.8338 -13.8338
    -3.9195  -3.9164  -3.9063  -3.9038  -3.7679  -3.7628  -3.7477  -3.7414
    -2.9699  -2.9642  -2.9050  -2.8992  -2.8199  -2.8125  -2.7242  -2.7110
    -2.3293  -2.3226  -2.3127  -2.3019  -2.2400  -2.2327  -2.2248  -2.2117
     1.8958   1.9013   1.9093   1.9140   2.0243   2.0287   2.1229   2.1279
     2.1870   2.1913   2.9887   2.9941   3.0144   3.0408   3.1634   3.1747
     3.2642   3.2835   3.5069   3.5235   3.6080   3.6169   3.6880   3.6977
     3.8313   3.8403   4.1088   4.1178   4.1920   4.1984   4.3076   4.3169
     4.5115   4.5189   4.7998   4.8096   5.0355   5.0493   5.2677   5.2724
     5.6141   5.6199   5.6786   5.6889   5.9334   5.9415   6.0046   6.0088
     6.3112   6.3174   6.4777   6.4873   6.7296   6.7418   7.0366   7.0450
     7.3427   7.3513   8.3929   8.4003   8.6548   8.6565   9.2204   9.2240
     9.4053   9.4115   9.6406   9.6497   9.8555   9.8677   9.9797   9.9914
    10.1417  10.1487  10.2344  10.2394  10.3538  10.3578  10.4579  10.4597
    10.5296  10.5374  10.6736  10.6778  10.8614  10.8666  10.9685  10.9776
    11.3317  11.3412  11.5852  11.6031  12.2634  12.2732  12.5903  12.6132
    12.6595  12.6798  12.7801  12.7946  12.9313  12.9465  13.0707  13.0803
    13.2369  13.2481  13.3098  13.3241  13.6047  13.6209  13.9368  13.9657
    14.1366  14.1471  14.3509  14.3586  14.6120  14.6209  14.6429  14.6520
    15.0543  15.0595  15.1573  15.1608  15.3023  15.3123  15.6809  15.6951
    15.9228  15.9330  16.1546  16.1614  16.4106  16.4405  16.6131  16.6306
    16.7893  16.8029  17.1411  17.1554  17.2588  17.2607  17.4776  17.5004
    17.5566  17.5801  17.6460  17.6656  17.7323  17.7514  17.9789  17.9911
    18.0833  18.0949  18.1634  18.1727  18.2889  18.2996  18.4478  18.4575

     occupation numbers 
     1.0000   1.0000   1.0000   1.0000   1.0000   1.0000   1.0000   1.0000
     1.0000   1.0000   1.0000   1.0000   1.0000   1.0000   1.0000   1.0000
     1.0000   1.0000   1.0000   1.0000   1.0000   1.0000   1.0000   1.0000
     1.0000   1.0000   1.0000   1.0000   1.0000   1.0000   1.0000   1.0000
     1.0000   1.0000   1.0000   1.0000   1.0000   1.0000   1.0000   1.0000
     1.0000   1.0000   1.0000   1.0000   1.0000   1.0000   1.0000   1.0000
     1.0000   1.0000   1.0000   1.0000   1.0000   1.0000   1.0000   1.0000
     1.0000   1.0000   1.0000   1.0000   1.0000   1.0000   1.0000   1.0000
     1.0000   1.0000   1.0000   1.0000   1.0000   1.0000   1.0000   1.0000
     1.0000   1.0000   1.0000   1.0000   1.0000   1.0000   1.0000   1.0000
     1.0000   1.0000   1.0000   1.0000   1.0000   1.0000   1.0000   1.0000
     1.0000   1.0000   1.0000   1.0000   1.0000   1.0000   1.0000   1.0000
     1.0000   1.0000   1.0000   1.0000   1.0000   1.0000   1.0000   1.0000
     1.0000   1.0000   1.0000   1.0000   1.0000   1.0000   1.0000   1.0000
     1.0000   1.0000   1.0000   1.0000   1.0000   1.0000   1.0000   1.0000
     1.0000   1.0000   1.0000   1.0000   1.0000   1.0000   1.0000   1.0000
     1.0000   1.0000   1.0000   1.0000   1.0003   1.0003   1.0236   1.0257
     1.0537   1.0466   0.0000   0.0000   0.0000   0.0000   0.0000   0.0000
     0.0000   0.0000   0.0000   0.0000   0.0000   0.0000   0.0000   0.0000
     0.0000   0.0000   0.0000   0.0000   0.0000   0.0000   0.0000   0.0000
     0.0000   0.0000   0.0000   0.0000   0.0000   0.0000   0.0000   0.0000
     0.0000   0.0000   0.0000   0.0000   0.0000   0.0000   0.0000   0.0000
     0.0000   0.0000   0.0000   0.0000   0.0000   0.0000   0.0000   0.0000
     0.0000   0.0000   0.0000   0.0000   0.0000   0.0000   0.0000   0.0000
     0.0000   0.0000   0.0000   0.0000   0.0000   0.0000   0.0000   0.0000
     0.0000   0.0000   0.0000   0.0000   0.0000   0.0000   0.0000   0.0000
     0.0000   0.0000   0.0000   0.0000   0.0000   0.0000   0.0000   0.0000
     0.0000   0.0000   0.0000   0.0000   0.0000   0.0000   0.0000   0.0000
     0.0000   0.0000   0.0000   0.0000   0.0000   0.0000   0.0000   0.0000
     0.0000   0.0000   0.0000   0.0000   0.0000   0.0000   0.0000   0.0000

          k =-4.7417-0.9125 0.3347 ( 23538 PWs)   bands (ev):

   -74.8599 -74.8569 -69.9855 -69.9823 -44.0810 -44.0780 -43.7081 -43.7048
   -43.1672 -43.1642 -39.1474 -39.1441 -38.7643 -38.7610 -38.3922 -38.3889
   -16.8676 -16.8670 -16.8607 -16.8602 -16.8567 -16.8562 -16.8512 -16.8503
   -16.8311 -16.8310 -16.8283 -16.8275 -16.8266 -16.8260 -16.8242 -16.8238
   -13.8938 -13.8897 -13.8889 -13.8852 -13.8773 -13.8731 -13.8729 -13.8713
   -13.8676 -13.8666 -13.8624 -13.8621 -13.8561 -13.8542 -13.8520 -13.8519
   -13.8468 -13.8468 -13.8455 -13.8434 -13.8360 -13.8360 -13.8336 -13.8334
    -3.9215  -3.9186  -3.9037  -3.9006  -3.7723  -3.7669  -3.7439  -3.7378
    -2.9766  -2.9721  -2.8830  -2.8761  -2.8405  -2.8319  -2.7187  -2.7067
    -2.3325  -2.3257  -2.3095  -2.2980  -2.2418  -2.2334  -2.2240  -2.2114
     1.8958   1.9013   1.9093   1.9140   2.0243   2.0287   2.1229   2.1279
     2.1869   2.1913   2.9879   2.9957   3.0089   3.0368   3.1510   3.1651
     3.3036   3.3313   3.5067   3.5189   3.5755   3.5809   3.6575   3.6715
     3.8483   3.8571   4.1252   4.1381   4.2216   4.2285   4.2885   4.2983
     4.5615   4.5649   4.7299   4.7357   5.0195   5.0318   5.2572   5.2613
     5.6269   5.6447   5.7816   5.7887   5.8710   5.8787   6.0339   6.0402
     6.2472   6.2528   6.5789   6.5818   6.5908   6.6043   7.0800   7.0882
     7.3793   7.3875   8.3392   8.3506   8.6725   8.6754   9.2092   9.2152
     9.4453   9.4518   9.7051   9.7145   9.8603   9.8659   9.9245   9.9472
    10.0199  10.0299  10.2338  10.2387  10.3849  10.3890  10.4574  10.4601
    10.6404  10.6562  10.6725  10.6817  10.8000  10.8105  10.9675  10.9761
    11.3028  11.3115  11.6325  11.6537  12.2352  12.2437  12.5807  12.6118
    12.6621  12.6862  12.7722  12.7897  12.9769  13.0037  13.0485  13.0562
    13.2399  13.2531  13.3056  13.3271  13.5389  13.5509  14.0294  14.0598
    14.1191  14.1266  14.2709  14.2801  14.6687  14.6790  14.7207  14.7364
    15.0598  15.0639  15.1086  15.1147  15.2203  15.2224  15.6727  15.6903
    16.0299  16.0450  16.2358  16.2516  16.3255  16.3403  16.6209  16.6377
    16.6817  16.6931  17.0167  17.0243  17.2752  17.2876  17.5039  17.5166
    17.5953  17.6336  17.6864  17.6955  17.8639  17.8840  18.0150  18.0182
    18.1152  18.1275  18.1670  18.1750  18.2153  18.2197  18.6378  18.6521

     occupation numbers 
     1.0000   1.0000   1.0000   1.0000   1.0000   1.0000   1.0000   1.0000
     1.0000   1.0000   1.0000   1.0000   1.0000   1.0000   1.0000   1.0000
     1.0000   1.0000   1.0000   1.0000   1.0000   1.0000   1.0000   1.0000
     1.0000   1.0000   1.0000   1.0000   1.0000   1.0000   1.0000   1.0000
     1.0000   1.0000   1.0000   1.0000   1.0000   1.0000   1.0000   1.0000
     1.0000   1.0000   1.0000   1.0000   1.0000   1.0000   1.0000   1.0000
     1.0000   1.0000   1.0000   1.0000   1.0000   1.0000   1.0000   1.0000
     1.0000   1.0000   1.0000   1.0000   1.0000   1.0000   1.0000   1.0000
     1.0000   1.0000   1.0000   1.0000   1.0000   1.0000   1.0000   1.0000
     1.0000   1.0000   1.0000   1.0000   1.0000   1.0000   1.0000   1.0000
     1.0000   1.0000   1.0000   1.0000   1.0000   1.0000   1.0000   1.0000
     1.0000   1.0000   1.0000   1.0000   1.0000   1.0000   1.0000   1.0000
     1.0000   1.0000   1.0000   1.0000   1.0000   1.0000   1.0000   1.0000
     1.0000   1.0000   1.0000   1.0000   1.0000   1.0000   1.0000   1.0000
     1.0000   1.0000   1.0000   1.0000   1.0000   1.0000   1.0000   1.0000
     1.0000   1.0000   1.0000   1.0000   1.0000   1.0000   1.0000   1.0000
     1.0000   1.0000   1.0000   1.0000   1.0000   1.0000   1.0353   1.0378
     1.0173   1.0070   0.0000   0.0000   0.0000   0.0000   0.0000   0.0000
     0.0000   0.0000   0.0000   0.0000   0.0000   0.0000   0.0000   0.0000
     0.0000   0.0000   0.0000   0.0000   0.0000   0.0000   0.0000   0.0000
     0.0000   0.0000   0.0000   0.0000   0.0000   0.0000   0.0000   0.0000
     0.0000   0.0000   0.0000   0.0000   0.0000   0.0000   0.0000   0.0000
     0.0000   0.0000   0.0000   0.0000   0.0000   0.0000   0.0000   0.0000
     0.0000   0.0000   0.0000   0.0000   0.0000   0.0000   0.0000   0.0000
     0.0000   0.0000   0.0000   0.0000   0.0000   0.0000   0.0000   0.0000
     0.0000   0.0000   0.0000   0.0000   0.0000   0.0000   0.0000   0.0000
     0.0000   0.0000   0.0000   0.0000   0.0000   0.0000   0.0000   0.0000
     0.0000   0.0000   0.0000   0.0000   0.0000   0.0000   0.0000   0.0000
     0.0000   0.0000   0.0000   0.0000   0.0000   0.0000   0.0000   0.0000
     0.0000   0.0000   0.0000   0.0000   0.0000   0.0000   0.0000   0.0000

          k = 0.0000 3.6502 0.1674 ( 23516 PWs)   bands (ev):

   -74.8599 -74.8569 -69.9855 -69.9822 -44.0810 -44.0780 -43.7081 -43.7048
   -43.1672 -43.1642 -39.1474 -39.1440 -38.7643 -38.7610 -38.3922 -38.3889
   -16.8676 -16.8676 -16.8602 -16.8601 -16.8562 -16.8561 -16.8509 -16.8509
   -16.8311 -16.8311 -16.8282 -16.8282 -16.8261 -16.8260 -16.8238 -16.8237
   -13.8942 -13.8942 -13.8864 -13.8864 -13.8768 -13.8768 -13.8731 -13.8731
   -13.8641 -13.8641 -13.8604 -13.8603 -13.8579 -13.8579 -13.8538 -13.8538
   -13.8467 -13.8467 -13.8431 -13.8431 -13.8344 -13.8344 -13.8317 -13.8316
    -3.7576  -3.7533  -3.7480  -3.7454  -3.7048  -3.7034  -3.6971  -3.6884
    -3.1306  -3.1268  -3.1223  -3.1120  -3.0314  -3.0300  -2.9556  -2.9417
    -2.3272  -2.3233  -2.2861  -2.2819  -2.1209  -2.1147  -2.0920  -2.0872
     1.7599   1.7659   1.9067   1.9109   1.9595   1.9652   2.2029   2.2064
     2.2934   2.2977   2.6116   2.6179   2.7183   2.7299   2.9987   2.9990
     3.1376   3.1507   3.6265   3.6429   3.7230   3.7249   4.0698   4.0788
     4.0893   4.0969   4.5764   4.5812   4.6099   4.6269   4.7624   4.7700
     4.7886   4.8087   4.9353   4.9394   4.9474   4.9756   5.4221   5.4309
     5.4750   5.4762   5.8928   5.9040   5.9257   5.9264   6.0999   6.1102
     6.3458   6.3523   6.4336   6.4363   6.7296   6.7311   7.0784   7.0856
     7.2057   7.2158   8.2701   8.2820   8.4315   8.4370   8.8729   8.8878
     8.9321   8.9364   9.3113   9.3201   9.5063   9.5154   9.6615   9.6655
     9.7522   9.7561   9.8172   9.8456  10.0971  10.0983  10.2267  10.2282
    10.4351  10.4403  10.5337  10.5352  10.6137  10.6180  10.6999  10.7030
    11.1188  11.1326  11.2835  11.2867  11.5382  11.5499  11.7002  11.7035
    11.7278  11.7485  12.1019  12.1123  12.5485  12.5524  13.1517  13.1723
    13.5441  13.5480  13.7300  13.7334  14.2528  14.2622  14.4576  14.4584
    14.6913  14.7179  14.8903  14.8952  15.5509  15.5556  15.7334  15.7353
    16.0647  16.0696  16.2513  16.2596  16.5101  16.5270  16.5827  16.5932
    16.7589  16.7595  16.8605  16.8629  17.1050  17.1170  17.1633  17.1740
    17.5974  17.6146  17.6967  17.7011  17.9230  17.9386  17.9755  17.9801
    18.0677  18.0764  18.0997  18.1080  18.1272  18.1374  18.2322  18.2488
    18.2955  18.2999  18.3193  18.3195  18.3910  18.3998  18.4727  18.4909

     occupation numbers 
     1.0000   1.0000   1.0000   1.0000   1.0000   1.0000   1.0000   1.0000
     1.0000   1.0000   1.0000   1.0000   1.0000   1.0000   1.0000   1.0000
     1.0000   1.0000   1.0000   1.0000   1.0000   1.0000   1.0000   1.0000
     1.0000   1.0000   1.0000   1.0000   1.0000   1.0000   1.0000   1.0000
     1.0000   1.0000   1.0000   1.0000   1.0000   1.0000   1.0000   1.0000
     1.0000   1.0000   1.0000   1.0000   1.0000   1.0000   1.0000   1.0000
     1.0000   1.0000   1.0000   1.0000   1.0000   1.0000   1.0000   1.0000
     1.0000   1.0000   1.0000   1.0000   1.0000   1.0000   1.0000   1.0000
     1.0000   1.0000   1.0000   1.0000   1.0000   1.0000   1.0000   1.0000
     1.0000   1.0000   1.0000   1.0000   1.0000   1.0000   1.0000   1.0000
     1.0000   1.0000   1.0000   1.0000   1.0000   1.0000   1.0000   1.0000
     1.0000   1.0000   1.0000   1.0000   1.0000   1.0000   1.0000   1.0000
     1.0000   1.0000   1.0000   1.0000   1.0000   1.0000   1.0000   1.0000
     1.0000   1.0000   1.0000   1.0000   1.0000   1.0000   1.0000   1.0000
     1.0000   1.0000   1.0000   1.0000   1.0000   1.0000   1.0000   1.0000
     1.0000   1.0000   1.0000   1.0000   1.0000   1.0000   1.0000   1.0000
     1.0000   1.0000   1.0000   1.0000   1.0003   1.0003   1.0348   1.0370
     1.0758   1.0782   0.0001   0.0000   0.0000   0.0000   0.0000   0.0000
     0.0000   0.0000   0.0000   0.0000   0.0000   0.0000   0.0000   0.0000
     0.0000   0.0000   0.0000   0.0000   0.0000   0.0000   0.0000   0.0000
     0.0000   0.0000   0.0000   0.0000   0.0000   0.0000   0.0000   0.0000
     0.0000   0.0000   0.0000   0.0000   0.0000   0.0000   0.0000   0.0000
     0.0000   0.0000   0.0000   0.0000   0.0000   0.0000   0.0000   0.0000
     0.0000   0.0000   0.0000   0.0000   0.0000   0.0000   0.0000   0.0000
     0.0000   0.0000   0.0000   0.0000   0.0000   0.0000   0.0000   0.0000
     0.0000   0.0000   0.0000   0.0000   0.0000   0.0000   0.0000   0.0000
     0.0000   0.0000   0.0000   0.0000   0.0000   0.0000   0.0000   0.0000
     0.0000   0.0000   0.0000   0.0000   0.0000   0.0000   0.0000   0.0000
     0.0000   0.0000   0.0000   0.0000   0.0000   0.0000   0.0000   0.0000
     0.0000   0.0000   0.0000   0.0000   0.0000   0.0000   0.0000   0.0000

          k =-1.5806 2.7376 0.2510 ( 23534 PWs)   bands (ev):

   -74.8599 -74.8569 -69.9855 -69.9823 -44.0810 -44.0780 -43.7081 -43.7048
   -43.1672 -43.1642 -39.1474 -39.1440 -38.7643 -38.7610 -38.3922 -38.3889
   -16.8676 -16.8670 -16.8607 -16.8602 -16.8567 -16.8562 -16.8512 -16.8503
   -16.8311 -16.8310 -16.8283 -16.8275 -16.8266 -16.8260 -16.8242 -16.8238
   -13.8937 -13.8897 -13.8889 -13.8852 -13.8773 -13.8731 -13.8729 -13.8713
   -13.8676 -13.8666 -13.8624 -13.8621 -13.8560 -13.8542 -13.8520 -13.8519
   -13.8468 -13.8468 -13.8455 -13.8434 -13.8360 -13.8360 -13.8336 -13.8334
    -3.9194  -3.9165  -3.9063  -3.9036  -3.7678  -3.7629  -3.7476  -3.7414
    -2.9699  -2.9641  -2.9050  -2.8992  -2.8199  -2.8125  -2.7242  -2.7110
    -2.3293  -2.3226  -2.3128  -2.3019  -2.2400  -2.2327  -2.2248  -2.2117
     1.8958   1.9013   1.9093   1.9140   2.0243   2.0287   2.1229   2.1279
     2.1869   2.1913   2.9887   2.9949   3.0135   3.0410   3.1634   3.1752
     3.2640   3.2835   3.5056   3.5236   3.6080   3.6165   3.6877   3.6991
     3.8320   3.8397   4.1082   4.1177   4.1928   4.1983   4.3079   4.3163
     4.5120   4.5186   4.7999   4.8094   5.0358   5.0491   5.2682   5.2718
     5.6137   5.6206   5.6788   5.6883   5.9338   5.9412   6.0047   6.0086
     6.3110   6.3176   6.4775   6.4877   6.7296   6.7419   7.0366   7.0451
     7.3425   7.3513   8.3916   8.4019   8.6536   8.6577   9.2202   9.2241
     9.4056   9.4109   9.6405   9.6499   9.8554   9.8679   9.9791   9.9915
    10.1419  10.1486  10.2343  10.2394  10.3540  10.3579  10.4579  10.4597
    10.5293  10.5372  10.6736  10.6778  10.8610  10.8669  10.9678  10.9782
    11.3323  11.3420  11.5832  11.6042  12.2645  12.2728  12.5883  12.6141
    12.6572  12.6796  12.7795  12.7981  12.9270  12.9493  13.0708  13.0812
    13.2365  13.2487  13.3091  13.3256  13.6065  13.6191  13.9390  13.9640
    14.1368  14.1472  14.3513  14.3582  14.6114  14.6210  14.6432  14.6521
    15.0541  15.0595  15.1574  15.1610  15.3020  15.3120  15.6819  15.6951
    15.9213  15.9337  16.1529  16.1632  16.4109  16.4410  16.6105  16.6326
    16.7875  16.8048  17.1417  17.1538  17.2575  17.2621  17.4772  17.5018
    17.5564  17.5790  17.6465  17.6669  17.7313  17.7502  17.9814  17.9910
    18.0845  18.0937  18.1636  18.1714  18.2899  18.2993  18.4482  18.4575

     occupation numbers 
     1.0000   1.0000   1.0000   1.0000   1.0000   1.0000   1.0000   1.0000
     1.0000   1.0000   1.0000   1.0000   1.0000   1.0000   1.0000   1.0000
     1.0000   1.0000   1.0000   1.0000   1.0000   1.0000   1.0000   1.0000
     1.0000   1.0000   1.0000   1.0000   1.0000   1.0000   1.0000   1.0000
     1.0000   1.0000   1.0000   1.0000   1.0000   1.0000   1.0000   1.0000
     1.0000   1.0000   1.0000   1.0000   1.0000   1.0000   1.0000   1.0000
     1.0000   1.0000   1.0000   1.0000   1.0000   1.0000   1.0000   1.0000
     1.0000   1.0000   1.0000   1.0000   1.0000   1.0000   1.0000   1.0000
     1.0000   1.0000   1.0000   1.0000   1.0000   1.0000   1.0000   1.0000
     1.0000   1.0000   1.0000   1.0000   1.0000   1.0000   1.0000   1.0000
     1.0000   1.0000   1.0000   1.0000   1.0000   1.0000   1.0000   1.0000
     1.0000   1.0000   1.0000   1.0000   1.0000   1.0000   1.0000   1.0000
     1.0000   1.0000   1.0000   1.0000   1.0000   1.0000   1.0000   1.0000
     1.0000   1.0000   1.0000   1.0000   1.0000   1.0000   1.0000   1.0000
     1.0000   1.0000   1.0000   1.0000   1.0000   1.0000   1.0000   1.0000
     1.0000   1.0000   1.0000   1.0000   1.0000   1.0000   1.0000   1.0000
     1.0000   1.0000   1.0000   1.0000   1.0003   1.0003   1.0236   1.0257
     1.0538   1.0466   0.0000   0.0000   0.0000   0.0000   0.0000   0.0000
     0.0000   0.0000   0.0000   0.0000   0.0000   0.0000   0.0000   0.0000
     0.0000   0.0000   0.0000   0.0000   0.0000   0.0000   0.0000   0.0000
     0.0000   0.0000   0.0000   0.0000   0.0000   0.0000   0.0000   0.0000
     0.0000   0.0000   0.0000   0.0000   0.0000   0.0000   0.0000   0.0000
     0.0000   0.0000   0.0000   0.0000   0.0000   0.0000   0.0000   0.0000
     0.0000   0.0000   0.0000   0.0000   0.0000   0.0000   0.0000   0.0000
     0.0000   0.0000   0.0000   0.0000   0.0000   0.0000   0.0000   0.0000
     0.0000   0.0000   0.0000   0.0000   0.0000   0.0000   0.0000   0.0000
     0.0000   0.0000   0.0000   0.0000   0.0000   0.0000   0.0000   0.0000
     0.0000   0.0000   0.0000   0.0000   0.0000   0.0000   0.0000   0.0000
     0.0000   0.0000   0.0000   0.0000   0.0000   0.0000   0.0000   0.0000
     0.0000   0.0000   0.0000   0.0000   0.0000   0.0000   0.0000   0.0000

          k =-3.1612 1.8251 0.3347 ( 23494 PWs)   bands (ev):

   -74.8599 -74.8569 -69.9855 -69.9822 -44.0810 -44.0780 -43.7081 -43.7048
   -43.1671 -43.1642 -39.1474 -39.1440 -38.7643 -38.7610 -38.3922 -38.3889
[...]
    10.3658  10.3732  10.4122  10.4154  10.5795  10.5833  10.7301  10.7403
    11.0217  11.0398  11.2820  11.2978  11.6065  11.6169  11.9067  11.9126
    12.1411  12.1502  12.3345  12.3423  12.5096  12.5190  12.8132  12.8352
    13.4214  13.4268  13.4674  13.4718  13.5167  13.5260  13.6404  13.6451
    13.8824  13.8978  14.1366  14.1400  14.2203  14.2234  14.2683  14.2781
    14.5003  14.5200  14.6829  14.6993  14.7701  14.7783  14.8393  14.8428
    14.9921  14.9929  15.1840  15.1889  15.3550  15.3649  15.5290  15.5355
    15.6492  15.6660  16.0356  16.0407  16.1644  16.1684  16.2085  16.2239
    16.2913  16.3142  16.4250  16.4332  16.9546  16.9586  17.0030  17.0078
    17.1622  17.1714  17.2108  17.2327  17.2922  17.3011  17.4573  17.4762

     occupation numbers 
     1.0000   1.0000   1.0000   1.0000   1.0000   1.0000   1.0000   1.0000
     1.0000   1.0000   1.0000   1.0000   1.0000   1.0000   1.0000   1.0000
     1.0000   1.0000   1.0000   1.0000   1.0000   1.0000   1.0000   1.0000
     1.0000   1.0000   1.0000   1.0000   1.0000   1.0000   1.0000   1.0000
     1.0000   1.0000   1.0000   1.0000   1.0000   1.0000   1.0000   1.0000
     1.0000   1.0000   1.0000   1.0000   1.0000   1.0000   1.0000   1.0000
     1.0000   1.0000   1.0000   1.0000   1.0000   1.0000   1.0000   1.0000
     1.0000   1.0000   1.0000   1.0000   1.0000   1.0000   1.0000   1.0000
     1.0000   1.0000   1.0000   1.0000   1.0000   1.0000   1.0000   1.0000
     1.0000   1.0000   1.0000   1.0000   1.0000   1.0000   1.0000   1.0000
     1.0000   1.0000   1.0000   1.0000   1.0000   1.0000   1.0000   1.0000
     1.0000   1.0000   1.0000   1.0000   1.0000   1.0000   1.0000   1.0000
     1.0000   1.0000   1.0000   1.0000   1.0000   1.0000   1.0000   1.0000
     1.0000   1.0000   1.0000   1.0000   1.0000   1.0000   1.0000   1.0000
     1.0000   1.0000   1.0000   1.0000   1.0000   1.0000   1.0000   1.0000
     1.0000   1.0000   1.0000   1.0000   1.0000   1.0000   1.0000   1.0000
     1.0000   1.0001   1.0032   1.0036   1.0362   1.0372   1.0756   1.0789
     0.9655   0.9518   0.0000   0.0000   0.0000   0.0000   0.0000   0.0000
     0.0000   0.0000   0.0000   0.0000   0.0000   0.0000   0.0000   0.0000
     0.0000   0.0000   0.0000   0.0000   0.0000   0.0000   0.0000   0.0000
     0.0000   0.0000   0.0000   0.0000   0.0000   0.0000   0.0000   0.0000
     0.0000   0.0000   0.0000   0.0000   0.0000   0.0000   0.0000   0.0000
     0.0000   0.0000   0.0000   0.0000   0.0000   0.0000   0.0000   0.0000
     0.0000   0.0000   0.0000   0.0000   0.0000   0.0000   0.0000   0.0000
     0.0000   0.0000   0.0000   0.0000   0.0000   0.0000   0.0000   0.0000
     0.0000   0.0000   0.0000   0.0000   0.0000   0.0000   0.0000   0.0000
     0.0000   0.0000   0.0000   0.0000   0.0000   0.0000   0.0000   0.0000
     0.0000   0.0000   0.0000   0.0000   0.0000   0.0000   0.0000   0.0000
     0.0000   0.0000   0.0000   0.0000   0.0000   0.0000   0.0000   0.0000
     0.0000   0.0000   0.0000   0.0000   0.0000   0.0000   0.0000   0.0000

          k = 3.1612 1.8251 0.5858 ( 23506 PWs)   bands (ev):

   -74.8599 -74.8569 -69.9855 -69.9822 -44.0810 -44.0780 -43.7081 -43.7048
   -43.1671 -43.1642 -39.1474 -39.1440 -38.7643 -38.7610 -38.3922 -38.3889
   -16.8671 -16.8671 -16.8606 -16.8605 -16.8570 -16.8569 -16.8502 -16.8502
   -16.8311 -16.8311 -16.8282 -16.8282 -16.8261 -16.8260 -16.8237 -16.8237
   -13.8943 -13.8942 -13.8875 -13.8873 -13.8773 -13.8772 -13.8696 -13.8695
   -13.8652 -13.8652 -13.8613 -13.8612 -13.8572 -13.8572 -13.8544 -13.8544
   -13.8467 -13.8466 -13.8435 -13.8434 -13.8335 -13.8334 -13.8322 -13.8322
    -3.7581  -3.7529  -3.7491  -3.7441  -3.7080  -3.7005  -3.6979  -3.6876
    -3.1395  -3.1385  -3.1059  -3.0985  -3.0373  -3.0357  -2.9543  -2.9408
    -2.3221  -2.3182  -2.2923  -2.2885  -2.1160  -2.1099  -2.0955  -2.0904
     1.7600   1.7660   1.9067   1.9109   1.9596   1.9652   2.2029   2.2064
     2.2934   2.2977   2.6018   2.6069   2.7390   2.7492   2.9900   2.9965
     3.1232   3.1367   3.6427   3.6551   3.7627   3.7684   3.9278   3.9294
     4.2326   4.2379   4.4876   4.4981   4.6605   4.6830   4.7336   4.7408
     4.7653   4.7708   4.8994   4.9176   5.0942   5.1133   5.2926   5.3014
     5.5438   5.5495   5.8589   5.8665   5.9790   5.9858   6.0847   6.0932
     6.3215   6.3290   6.4353   6.4383   6.7700   6.7774   7.0355   7.0439
     7.2007   7.2110   8.2898   8.3098   8.4981   8.5041   8.8013   8.8127
     8.9161   8.9210   9.3425   9.3534   9.5033   9.5141   9.6166   9.6217
     9.7100   9.7354   9.7969   9.7981  10.1457  10.1486  10.2905  10.2940
    10.4364  10.4429  10.5341  10.5388  10.6278  10.6309  10.7180  10.7189
    11.1191  11.1320  11.2982  11.3033  11.4770  11.4861  11.5817  11.5903
    11.8373  11.8465  12.0554  12.0659  12.6066  12.6101  13.1696  13.1918
    13.4615  13.4706  13.8157  13.8232  14.2132  14.2259  14.4578  14.4745
    14.7327  14.7401  14.9531  14.9568  15.3497  15.3532  15.7240  15.7309
    16.0566  16.0695  16.3578  16.3606  16.4769  16.4975  16.5731  16.5797
    16.8167  16.8259  16.9496  16.9501  17.0459  17.0651  17.2093  17.2303
    17.5754  17.5962  17.7149  17.7362  17.8682  17.8930  17.9594  17.9665
    18.0134  18.0334  18.0992  18.1112  18.1611  18.1684  18.2451  18.2570
    18.2655  18.2704  18.3126  18.3244  18.3441  18.3638  18.5815  18.5996

     occupation numbers 
     1.0000   1.0000   1.0000   1.0000   1.0000   1.0000   1.0000   1.0000
     1.0000   1.0000   1.0000   1.0000   1.0000   1.0000   1.0000   1.0000
     1.0000   1.0000   1.0000   1.0000   1.0000   1.0000   1.0000   1.0000
     1.0000   1.0000   1.0000   1.0000   1.0000   1.0000   1.0000   1.0000
     1.0000   1.0000   1.0000   1.0000   1.0000   1.0000   1.0000   1.0000
     1.0000   1.0000   1.0000   1.0000   1.0000   1.0000   1.0000   1.0000
     1.0000   1.0000   1.0000   1.0000   1.0000   1.0000   1.0000   1.0000
     1.0000   1.0000   1.0000   1.0000   1.0000   1.0000   1.0000   1.0000
     1.0000   1.0000   1.0000   1.0000   1.0000   1.0000   1.0000   1.0000
     1.0000   1.0000   1.0000   1.0000   1.0000   1.0000   1.0000   1.0000
     1.0000   1.0000   1.0000   1.0000   1.0000   1.0000   1.0000   1.0000
     1.0000   1.0000   1.0000   1.0000   1.0000   1.0000   1.0000   1.0000
     1.0000   1.0000   1.0000   1.0000   1.0000   1.0000   1.0000   1.0000
     1.0000   1.0000   1.0000   1.0000   1.0000   1.0000   1.0000   1.0000
     1.0000   1.0000   1.0000   1.0000   1.0000   1.0000   1.0000   1.0000
     1.0000   1.0000   1.0000   1.0000   1.0000   1.0000   1.0000   1.0000
     1.0000   1.0000   1.0000   1.0000   1.0006   1.0006   1.0234   1.0254
     1.0746   1.0771   0.0000   0.0000   0.0000   0.0000   0.0000   0.0000
     0.0000   0.0000   0.0000   0.0000   0.0000   0.0000   0.0000   0.0000
     0.0000   0.0000   0.0000   0.0000   0.0000   0.0000   0.0000   0.0000
     0.0000   0.0000   0.0000   0.0000   0.0000   0.0000   0.0000   0.0000
     0.0000   0.0000   0.0000   0.0000   0.0000   0.0000   0.0000   0.0000
     0.0000   0.0000   0.0000   0.0000   0.0000   0.0000   0.0000   0.0000
     0.0000   0.0000   0.0000   0.0000   0.0000   0.0000   0.0000   0.0000
     0.0000   0.0000   0.0000   0.0000   0.0000   0.0000   0.0000   0.0000
     0.0000   0.0000   0.0000   0.0000   0.0000   0.0000   0.0000   0.0000
     0.0000   0.0000   0.0000   0.0000   0.0000   0.0000   0.0000   0.0000
     0.0000   0.0000   0.0000   0.0000   0.0000   0.0000   0.0000   0.0000
     0.0000   0.0000   0.0000   0.0000   0.0000   0.0000   0.0000   0.0000
     0.0000   0.0000   0.0000   0.0000   0.0000   0.0000   0.0000   0.0000

          k = 1.5806 0.9125 0.6695 ( 23491 PWs)   bands (ev):

   -74.8599 -74.8569 -69.9856 -69.9823 -44.0808 -44.0778 -43.7081 -43.7049
   -43.1670 -43.1640 -39.1472 -39.1438 -38.7644 -38.7610 -38.3919 -38.3886
   -16.8686 -16.8684 -16.8607 -16.8601 -16.8568 -16.8562 -16.8521 -16.8518
   -16.8324 -16.8322 -16.8279 -16.8278 -16.8262 -16.8261 -16.8255 -16.8254
   -13.8910 -13.8909 -13.8870 -13.8869 -13.8774 -13.8773 -13.8723 -13.8715
   -13.8673 -13.8668 -13.8654 -13.8651 -13.8548 -13.8544 -13.8517 -13.8512
   -13.8471 -13.8469 -13.8438 -13.8437 -13.8386 -13.8385 -13.8365 -13.8364
    -4.8768  -4.8737  -4.8639  -4.8616  -4.6663  -4.6617  -4.6471  -4.6415
    -3.3890  -3.3827  -3.3258  -3.3185  -2.9602  -2.9529  -2.8868  -2.8770
    -1.5727  -1.5646  -1.5624  -1.5593  -1.1980  -1.1955  -1.1779  -1.1693
     1.8759   1.8805   1.9212   1.9251   1.9740   1.9787   2.0658   2.0706
     2.1143   2.1181   3.3625   3.3700   3.5143   3.5209   3.7406   3.7426
     4.0769   4.0808   4.1716   4.1789   4.3108   4.3221   4.5198   4.5253
     4.5830   4.5973   5.0742   5.0856   5.2153   5.2193   5.2890   5.2991
     5.3378   5.3505   5.7508   5.7675   5.8449   5.8637   5.9243   5.9340
     6.1200   6.1324   6.2524   6.2588   6.3790   6.3818   6.4978   6.5033
     6.6953   6.7063   6.7497   6.7555   7.1007   7.1057   7.2479   7.2592
     7.3967   7.4083   8.3320   8.3457   8.5449   8.5554   9.0188   9.0232
     9.1541   9.1567   9.4216   9.4554   9.5885   9.5940   9.7700   9.7720
     9.8417   9.8517   9.9784   9.9906  10.0880  10.1036  10.2695  10.2767
    10.4036  10.4090  10.4557  10.4639  10.5711  10.5810  10.7003  10.7034
    11.0522  11.0663  11.2543  11.2683  11.5986  11.6104  11.8529  11.8604
    12.1998  12.2028  12.3626  12.3740  12.4883  12.5007  12.8083  12.8314
    13.3919  13.4043  13.4815  13.4883  13.5720  13.5744  13.7025  13.7093
    13.7579  13.7598  14.1102  14.1349  14.1590  14.1718  14.2789  14.2919
    14.4663  14.4690  14.7474  14.7512  14.8458  14.8548  14.8740  14.8769
    14.9896  14.9939  15.2281  15.2388  15.2923  15.2992  15.5784  15.5880
    15.7480  15.7586  15.9548  15.9684  16.0414  16.0516  16.2263  16.2375
    16.3703  16.3759  16.4443  16.4680  16.6033  16.6096  16.9153  16.9296
    17.0540  17.0720  17.1825  17.2000  17.3317  17.3484  17.7978  17.8086

     occupation numbers 
     1.0000   1.0000   1.0000   1.0000   1.0000   1.0000   1.0000   1.0000
     1.0000   1.0000   1.0000   1.0000   1.0000   1.0000   1.0000   1.0000
     1.0000   1.0000   1.0000   1.0000   1.0000   1.0000   1.0000   1.0000
     1.0000   1.0000   1.0000   1.0000   1.0000   1.0000   1.0000   1.0000
     1.0000   1.0000   1.0000   1.0000   1.0000   1.0000   1.0000   1.0000
     1.0000   1.0000   1.0000   1.0000   1.0000   1.0000   1.0000   1.0000
     1.0000   1.0000   1.0000   1.0000   1.0000   1.0000   1.0000   1.0000
     1.0000   1.0000   1.0000   1.0000   1.0000   1.0000   1.0000   1.0000
     1.0000   1.0000   1.0000   1.0000   1.0000   1.0000   1.0000   1.0000
     1.0000   1.0000   1.0000   1.0000   1.0000   1.0000   1.0000   1.0000
     1.0000   1.0000   1.0000   1.0000   1.0000   1.0000   1.0000   1.0000
     1.0000   1.0000   1.0000   1.0000   1.0000   1.0000   1.0000   1.0000
     1.0000   1.0000   1.0000   1.0000   1.0000   1.0000   1.0000   1.0000
     1.0000   1.0000   1.0000   1.0000   1.0000   1.0000   1.0000   1.0000
     1.0000   1.0000   1.0000   1.0000   1.0000   1.0000   1.0000   1.0000
     1.0000   1.0000   1.0000   1.0000   1.0000   1.0000   1.0000   1.0000
     1.0001   1.0002   1.0004   1.0004   1.0417   1.0434   1.0830   1.0833
     0.9944   0.9770   0.0000   0.0000   0.0000   0.0000   0.0000   0.0000
     0.0000   0.0000   0.0000   0.0000   0.0000   0.0000   0.0000   0.0000
     0.0000   0.0000   0.0000   0.0000   0.0000   0.0000   0.0000   0.0000
     0.0000   0.0000   0.0000   0.0000   0.0000   0.0000   0.0000   0.0000
     0.0000   0.0000   0.0000   0.0000   0.0000   0.0000   0.0000   0.0000
     0.0000   0.0000   0.0000   0.0000   0.0000   0.0000   0.0000   0.0000
     0.0000   0.0000   0.0000   0.0000   0.0000   0.0000   0.0000   0.0000
     0.0000   0.0000   0.0000   0.0000   0.0000   0.0000   0.0000   0.0000
     0.0000   0.0000   0.0000   0.0000   0.0000   0.0000   0.0000   0.0000
     0.0000   0.0000   0.0000   0.0000   0.0000   0.0000   0.0000   0.0000
     0.0000   0.0000   0.0000   0.0000   0.0000   0.0000   0.0000   0.0000
     0.0000   0.0000   0.0000   0.0000   0.0000   0.0000   0.0000   0.0000
     0.0000   0.0000   0.0000   0.0000   0.0000   0.0000   0.0000   0.0000

          k = 0.0000 0.0000 0.7531 ( 23470 PWs)   bands (ev):

   -74.8599 -74.8569 -69.9856 -69.9823 -44.0807 -44.0777 -43.7081 -43.7049
   -43.1668 -43.1638 -39.1469 -39.1435 -38.7645 -38.7611 -38.3916 -38.3883
   -16.8701 -16.8700 -16.8602 -16.8600 -16.8562 -16.8560 -16.8538 -16.8537
   -16.8338 -16.8337 -16.8275 -16.8274 -16.8273 -16.8271 -16.8259 -16.8257
   -13.8914 -13.8913 -13.8843 -13.8842 -13.8807 -13.8807 -13.8745 -13.8743
   -13.8684 -13.8683 -13.8647 -13.8645 -13.8553 -13.8552 -13.8524 -13.8523
   -13.8451 -13.8450 -13.8426 -13.8424 -13.8416 -13.8414 -13.8395 -13.8393
    -5.4151  -5.4123  -5.3915  -5.3891  -5.1931  -5.1881  -5.1547  -5.1498
    -3.7748  -3.7710  -3.6265  -3.6216  -3.2348  -3.2345  -3.0461  -3.0446
    -1.3911  -1.3906  -1.1499  -1.1483  -0.6709  -0.6675  -0.4727  -0.4704
     1.8319   1.8356   1.8646   1.8681   1.8822   1.8872   2.0916   2.0954
     2.1026   2.1065   4.0328   4.0337   4.2137   4.2195   4.8011   4.8027
     5.1206   5.1213   5.3901   5.3935   5.5400   5.5410   5.7825   5.7857
     5.8296   5.8416   6.1336   6.1465   6.2953   6.2977   6.3224   6.3351
     6.3936   6.3957   6.4050   6.4192   6.4795   6.4951   6.6862   6.6970
     6.7724   6.7902   6.8868   6.8971   6.9551   6.9662   7.0186   7.0209
     7.2615   7.2696   7.3290   7.3403   7.5382   7.5563   7.5684   7.5885
     7.7028   7.7116   7.9085   7.9153   7.9205   7.9432   8.0876   8.0934
     8.1895   8.2132   9.0379   9.0584   9.2647   9.3091   9.3221   9.3485
     9.4929   9.5223   9.5296   9.5710   9.6184   9.6503   9.8071   9.8293
     9.9977  10.0134  10.0454  10.0489  10.1231  10.1262  10.1316  10.1323
    10.6484  10.6554  10.9210  10.9306  11.4248  11.4314  11.6619  11.6623
    11.7484  11.7573  12.5929  12.6095  12.6605  12.6788  12.8155  12.8262
    13.2396  13.2428  13.2998  13.3021  13.3453  13.3568  13.3893  13.3953
    13.5986  13.6362  13.7897  13.7968  13.8129  13.8268  13.8571  13.8845
    14.0651  14.0736  14.0750  14.0852  14.1454  14.1585  14.4127  14.4332
    14.4447  14.4474  14.5972  14.6050  14.7415  14.7766  14.7902  14.8167
    15.1775  15.1942  15.2646  15.2898  15.3740  15.3826  15.4818  15.4909
    15.6237  15.6304  15.6904  15.6986  15.7275  15.7315  15.7549  15.7665
    16.0560  16.0675  16.1174  16.1221  16.1577  16.1753  16.2372  16.2501

     occupation numbers 
     1.0000   1.0000   1.0000   1.0000   1.0000   1.0000   1.0000   1.0000
     1.0000   1.0000   1.0000   1.0000   1.0000   1.0000   1.0000   1.0000
     1.0000   1.0000   1.0000   1.0000   1.0000   1.0000   1.0000   1.0000
     1.0000   1.0000   1.0000   1.0000   1.0000   1.0000   1.0000   1.0000
     1.0000   1.0000   1.0000   1.0000   1.0000   1.0000   1.0000   1.0000
     1.0000   1.0000   1.0000   1.0000   1.0000   1.0000   1.0000   1.0000
     1.0000   1.0000   1.0000   1.0000   1.0000   1.0000   1.0000   1.0000
     1.0000   1.0000   1.0000   1.0000   1.0000   1.0000   1.0000   1.0000
     1.0000   1.0000   1.0000   1.0000   1.0000   1.0000   1.0000   1.0000
     1.0000   1.0000   1.0000   1.0000   1.0000   1.0000   1.0000   1.0000
     1.0000   1.0000   1.0000   1.0000   1.0000   1.0000   1.0000   1.0000
     1.0000   1.0000   1.0000   1.0000   1.0000   1.0000   1.0000   1.0000
     1.0000   1.0000   1.0000   1.0000   1.0000   1.0000   1.0000   1.0000
     1.0000   1.0000   1.0000   1.0000   1.0000   1.0000   1.0000   1.0000
     1.0000   1.0000   1.0000   1.0000   1.0000   1.0000   1.0001   1.0001
     1.0006   1.0008   1.0037   1.0043   1.0094   1.0108   1.0196   1.0201
     1.0833   1.0829   1.0632   1.0555   0.6849   0.6352   0.6017   0.5462
     0.2646   0.2472   0.0323   0.0296   0.0276   0.0204   0.0021   0.0019
     0.0003   0.0002   0.0000   0.0000   0.0000   0.0000   0.0000   0.0000
     0.0000   0.0000   0.0000   0.0000   0.0000   0.0000   0.0000   0.0000
     0.0000   0.0000   0.0000   0.0000   0.0000   0.0000   0.0000   0.0000
     0.0000   0.0000   0.0000   0.0000   0.0000   0.0000   0.0000   0.0000
     0.0000   0.0000   0.0000   0.0000   0.0000   0.0000   0.0000   0.0000
     0.0000   0.0000   0.0000   0.0000   0.0000   0.0000   0.0000   0.0000
     0.0000   0.0000   0.0000   0.0000   0.0000   0.0000   0.0000   0.0000
     0.0000   0.0000   0.0000   0.0000   0.0000   0.0000   0.0000   0.0000
     0.0000   0.0000   0.0000   0.0000   0.0000   0.0000   0.0000   0.0000
     0.0000   0.0000   0.0000   0.0000   0.0000   0.0000   0.0000   0.0000
     0.0000   0.0000   0.0000   0.0000   0.0000   0.0000   0.0000   0.0000
     0.0000   0.0000   0.0000   0.0000   0.0000   0.0000   0.0000   0.0000

     the Fermi energy is     7.6433 ev
     (compare with:     7.7225 eV, computed in scf)

     Writing all to output data dir ./tmp/MnBi2Te4.save/
 
     init_run     :     11.75s CPU     12.61s WALL (       1 calls)
     electrons    :  18111.89s CPU  18666.42s WALL (       1 calls)

     Called by init_run:
     wfcinit      :      9.14s CPU      9.53s WALL (       1 calls)
     wfcinit:atom :      0.03s CPU      0.12s WALL (      64 calls)
     wfcinit:wfcr :    752.79s CPU    781.27s WALL (      64 calls)
     potinit      :      1.17s CPU      1.31s WALL (       1 calls)
     hinit0       :      0.70s CPU      0.87s WALL (       1 calls)

     Called by electrons:
     c_bands      :  18111.88s CPU  18666.38s WALL (       1 calls)
     v_of_rho     :      0.56s CPU      0.65s WALL (       1 calls)
     v_h          :      0.02s CPU      0.02s WALL (       1 calls)
     v_xc         :      0.54s CPU      0.63s WALL (       1 calls)
     newd         :      0.67s CPU      0.70s WALL (       1 calls)
     PAW_pot      :      0.54s CPU      0.57s WALL (       1 calls)

     Called by c_bands:
     init_us_2    :      0.32s CPU      0.33s WALL (     128 calls)
     init_us_2:cp :      0.32s CPU      0.33s WALL (     128 calls)
     cegterg      :  17355.20s CPU  17880.05s WALL (     209 calls)

     Called by sum_band:

     Called by *egterg:
     cdiaghg      :    176.35s CPU    182.48s WALL (    3609 calls)
     cegterg:over :    103.04s CPU    107.57s WALL (    3545 calls)
     cegterg:upda :     70.67s CPU     72.84s WALL (    3545 calls)
     cegterg:last :    175.14s CPU    178.99s WALL (    1467 calls)
     cdiaghg:chol :     12.88s CPU     13.11s WALL (    3609 calls)
     cdiaghg:inve :      3.58s CPU      3.62s WALL (    3609 calls)
     cdiaghg:para :     35.07s CPU     38.01s WALL (    7218 calls)
     h_psi        :  17490.15s CPU  18024.12s WALL (    3818 calls)
     s_psi        :     68.79s CPU     69.32s WALL (    3882 calls)
     g_psi        :      1.52s CPU      1.55s WALL (    3545 calls)

     Called by h_psi:
     h_psi:calbec :     81.19s CPU     86.78s WALL (    3818 calls)
     vloc_psi     :  17291.53s CPU  17817.23s WALL (    3818 calls)
     add_vuspsi   :     61.31s CPU     62.74s WALL (    3818 calls)
     vhpsi        :     52.34s CPU     53.23s WALL (    3818 calls)

     General routines
     calbec       :     83.02s CPU     88.77s WALL (    3882 calls)
     fft          :      0.20s CPU      0.22s WALL (      27 calls)
     fftw         :  10451.49s CPU  10903.20s WALL ( 1381936 calls)
     davcio       :      0.04s CPU      1.11s WALL (     256 calls)
 
     Parallel routines

     Hubbard U routines
     vhpsi        :     52.34s CPU     53.23s WALL (    3818 calls)

     PAW routines
     PAW_pot      :      0.54s CPU      0.57s WALL (       1 calls)
 
     PWSCF        :      5h 2m CPU      5h11m WALL

 
   This run was terminated on:  17:23:43  19Sep2025            

=------------------------------------------------------------------------------=
   JOB DONE.
=------------------------------------------------------------------------------=
