
     Program PW2WANNIER v.7.2 starts on 19Sep2025 at 17:23:44 

     This program is part of the open-source Quantum ESPRESSO suite
     for quantum simulation of materials; please cite
         "P. Giannozzi et al., J. Phys.:Condens. Matter 21 395502 (2009);
         "P. Giannozzi et al., J. Phys.:Condens. Matter 29 465901 (2017);
         "P. Giannozzi et al., J. Chem. Phys. 152 154105 (2020);
          URL http://www.quantum-espresso.org", 
     in publications or presentations arising from this work. More details at
     http://www.quantum-espresso.org/quote

     Parallel version (MPI), running on    64 processors

     MPI processes distributed on     1 nodes
     R & G space division:  proc/nbgrp/npool/nimage =      64
     96903 MiB available memory on the printing compute node when the environment starts
 
 
  Reading nscf_save data

     Reading xml data from directory:

     ./tmp/MnBi2Te4.save/
     file Mn.rel-pbe-spn-kjpaw_psl.0.3.1.UPF: wavefunction(s)  3P 3P 3D renormalized
     file Mn.rel-pbe-spn-kjpaw_psl.0.3.1.UPF: wavefunction(s)  3P 3P 3D renormalized
     file Bi.rel-pbe-dn-kjpaw_psl.1.0.0.UPF: wavefunction(s)  6P 6P 5D 5D renormalized
     file Te.rel-pbe-n-kjpaw_psl.1.0.0.UPF: wavefunction(s)  5S 5P 5P renormalized

     IMPORTANT: XC functional enforced from input :
     Exchange-correlation= PBE
                           (   1   4   3   4   0   0   0)
     Any further DFT definition will be discarded
     Please, verify this is what you really want

 
     Parallelization info
     --------------------
     sticks:   dense  smooth     PW     G-vecs:    dense   smooth      PW
     Min         126     126     36                 2936     2936     466
     Max         127     127     37                 2938     2938     468
     Sum        8079    8079   2357               187971   187971   29875
 
     Using Pencil Decomposition
 

     Check: negative core charge=   -0.000015
     Reading collected, re-writing distributed wavefunctions
 
  Spin CASE ( non-collinear )
 
  Wannier mode is: standalone     
 
  -----------------
  *** Reading nnkp 
  -----------------
 
  Checking info from wannier.nnkp file
 
  - Real lattice is ok
  - Reciprocal lattice is ok
  - K-points are ok
  - Number of wannier functions is ok ( 92)
  - All guiding functions are given 
 
 Projections:
    0.000000   -0.000000    0.634687  1  1  1    1.000000
    0.000000   -0.000000    0.634687  1  1  1    1.000000
    0.000000   -0.000000    0.634687  1  2  1    1.000000
    0.000000   -0.000000    0.634687  1  2  1    1.000000
    0.000000   -0.000000    0.634687  1  3  1    1.000000
    0.000000   -0.000000    0.634687  1  3  1    1.000000
    0.000000   -0.000001    2.128419  1  1  1    1.000000
    0.000000   -0.000001    2.128419  1  1  1    1.000000
    0.000000   -0.000001    2.128419  1  2  1    1.000000
    0.000000   -0.000001    2.128419  1  2  1    1.000000
    0.000000   -0.000001    2.128419  1  3  1    1.000000
    0.000000   -0.000001    2.128419  1  3  1    1.000000
    0.000000   -0.000000    0.859046  1  1  1    1.000000
    0.000000   -0.000000    0.859046  1  1  1    1.000000
    0.000000   -0.000000    0.859046  1  2  1    1.000000
    0.000000   -0.000000    0.859046  1  2  1    1.000000
    0.000000   -0.000000    0.859046  1  3  1    1.000000
    0.000000   -0.000000    0.859046  1  3  1    1.000000
    0.000000   -0.000001    2.352778  1  1  1    1.000000
    0.000000   -0.000001    2.352778  1  1  1    1.000000
    0.000000   -0.000001    2.352778  1  2  1    1.000000
    0.000000   -0.000001    2.352778  1  2  1    1.000000
    0.000000   -0.000001    2.352778  1  3  1    1.000000
    0.000000   -0.000001    2.352778  1  3  1    1.000000
    0.000000   -0.000000    0.199204  1  1  1    1.000000
    0.000000   -0.000000    0.199204  1  1  1    1.000000
    0.000000   -0.000000    0.199204  1  2  1    1.000000
    0.000000   -0.000000    0.199204  1  2  1    1.000000
    0.000000   -0.000000    0.199204  1  3  1    1.000000
    0.000000   -0.000000    0.199204  1  3  1    1.000000
    0.000000   -0.000001    1.692937  1  1  1    1.000000
    0.000000   -0.000001    1.692937  1  1  1    1.000000
    0.000000   -0.000001    1.692937  1  2  1    1.000000
    0.000000   -0.000001    1.692937  1  2  1    1.000000
    0.000000   -0.000001    1.692937  1  3  1    1.000000
    0.000000   -0.000001    1.692937  1  3  1    1.000000
    0.000000   -0.000000    1.294528  1  1  1    1.000000
    0.000000   -0.000000    1.294528  1  1  1    1.000000
    0.000000   -0.000000    1.294528  1  2  1    1.000000
    0.000000   -0.000000    1.294528  1  2  1    1.000000
    0.000000   -0.000000    1.294528  1  3  1    1.000000
    0.000000   -0.000000    1.294528  1  3  1    1.000000
    0.000000   -0.000001    2.788261  1  1  1    1.000000
    0.000000   -0.000001    2.788261  1  1  1    1.000000
    0.000000   -0.000001    2.788261  1  2  1    1.000000
    0.000000   -0.000001    2.788261  1  2  1    1.000000
    0.000000   -0.000001    2.788261  1  3  1    1.000000
    0.000000   -0.000001    2.788261  1  3  1    1.000000
    0.000000   -0.000000    0.439247  1  1  1    1.000000
    0.000000   -0.000000    0.439247  1  1  1    1.000000
    0.000000   -0.000000    0.439247  1  2  1    1.000000
    0.000000   -0.000000    0.439247  1  2  1    1.000000
    0.000000   -0.000000    0.439247  1  3  1    1.000000
    0.000000   -0.000000    0.439247  1  3  1    1.000000
    0.000000   -0.000001    1.932979  1  1  1    1.000000
    0.000000   -0.000001    1.932979  1  1  1    1.000000
    0.000000   -0.000001    1.932979  1  2  1    1.000000
    0.000000   -0.000001    1.932979  1  2  1    1.000000
    0.000000   -0.000001    1.932979  1  3  1    1.000000
    0.000000   -0.000001    1.932979  1  3  1    1.000000
    0.000000   -0.000000    1.054485  1  1  1    1.000000
    0.000000   -0.000000    1.054485  1  1  1    1.000000
    0.000000   -0.000000    1.054485  1  2  1    1.000000
    0.000000   -0.000000    1.054485  1  2  1    1.000000
    0.000000   -0.000000    1.054485  1  3  1    1.000000
    0.000000   -0.000000    1.054485  1  3  1    1.000000
    0.000000   -0.000001    2.548218  1  1  1    1.000000
    0.000000   -0.000001    2.548218  1  1  1    1.000000
    0.000000   -0.000001    2.548218  1  2  1    1.000000
    0.000000   -0.000001    2.548218  1  2  1    1.000000
    0.000000   -0.000001    2.548218  1  3  1    1.000000
    0.000000   -0.000001    2.548218  1  3  1    1.000000
    0.000000    0.000000    0.000000  2  1  1    1.000000
    0.000000    0.000000    0.000000  2  1  1    1.000000
    0.000000    0.000000    0.000000  2  2  1    1.000000
    0.000000    0.000000    0.000000  2  2  1    1.000000
    0.000000    0.000000    0.000000  2  3  1    1.000000
    0.000000    0.000000    0.000000  2  3  1    1.000000
    0.000000    0.000000    0.000000  2  4  1    1.000000
    0.000000    0.000000    0.000000  2  4  1    1.000000
    0.000000    0.000000    0.000000  2  5  1    1.000000
    0.000000    0.000000    0.000000  2  5  1    1.000000
    0.000000   -0.000001    1.493732  2  1  1    1.000000
    0.000000   -0.000001    1.493732  2  1  1    1.000000
    0.000000   -0.000001    1.493732  2  2  1    1.000000
    0.000000   -0.000001    1.493732  2  2  1    1.000000
    0.000000   -0.000001    1.493732  2  3  1    1.000000
    0.000000   -0.000001    1.493732  2  3  1    1.000000
    0.000000   -0.000001    1.493732  2  4  1    1.000000
    0.000000   -0.000001    1.493732  2  4  1    1.000000
    0.000000   -0.000001    1.493732  2  5  1    1.000000
    0.000000   -0.000001    1.493732  2  5  1    1.000000
 
  Reading data about k-point neighbours 
 
  All neighbours are found 
 
  Opening pp-files 
 
 
  --------------------------
  *** Compute  A projections
  --------------------------
 
  AMN: iknum =       64
       1       2       3       4       5       6       7       8       9      10
      11      12      13      14      15      16      17      18      19      20
      21      22      23      24      25      26      27      28      29      30
      31      32      33      34      35      36      37      38      39      40
      41      42      43      44      45      46      47      48      49      50
      51      52      53      54      55      56      57      58      59      60
      61      62      63      64

  AMN calculated
 
  ---------------
  *** Compute  M 
  ---------------
 
  MMN: iknum =       64
       1       2       3       4       5       6       7       8       9      10
      11      12      13      14      15      16      17      18      19      20
      21      22      23      24      25      26      27      28      29      30
      31      32      33      34      35      36      37      38      39      40
      41      42      43      44      45      46      47      48      49      50
      51      52      53      54      55      56      57      58      59      60
      61      62      63      64

  MMN calculated
 
  --------------------------------
  *** Spin matrix is not computed 
  --------------------------------
 
  -----------------------------------
  *** Orbital terms are not computed 
  -----------------------------------
 
  -----------------------------------
  *** SHC terms are not computed 
  -----------------------------------
 
  ----------------
  *** Write bands 
  ----------------
 
 
  -----------------------------
  *** Plot info is not printed 
  -----------------------------
 
  -----------------------------
  *** Parity info is not printed 
  -----------------------------
 
  ------------
  *** Stop pp 
  ------------
 
 
     init_pw2wan  :   2472.44s CPU   2530.98s WALL (       1 calls)
     compute_amn  :    260.55s CPU    265.42s WALL (       1 calls)
     compute_mmn  :   8105.26s CPU   8481.24s WALL (       1 calls)
 
     PW2WANNIER   :      3h 0m CPU      3h 7m WALL

 
   This run was terminated on:  20:31:42  19Sep2025            

=------------------------------------------------------------------------------=
   JOB DONE.
=------------------------------------------------------------------------------=
 
