
     Program PWSCF v.7.2 starts on 19Sep2025 at 11:16:19 

     This program is part of the open-source Quantum ESPRESSO suite
     for quantum simulation of materials; please cite
         "P. Giannozzi et al., J. Phys.:Condens. Matter 21 395502 (2009);
         "P. Giannozzi et al., J. Phys.:Condens. Matter 29 465901 (2017);
         "P. Giannozzi et al., J. Chem. Phys. 152 154105 (2020);
          URL http://www.quantum-espresso.org", 
     in publications or presentations arising from this work. More details at
     http://www.quantum-espresso.org/quote

     Parallel version (MPI), running on    32 processors

     MPI processes distributed on     1 nodes
     121877 MiB available memory on the printing compute node when the environment starts
 
     Reading input from MnBi2Te4.scf.in

     Current dimensions of program PWSCF are:
     Max number of different atomic species (ntypx) = 10
     Max number of k-points (npk) =  40000
     Max angular momentum in pseudopotentials (lmaxx) =  4
     file Mn.rel-pbe-spn-kjpaw_psl.0.3.1.UPF: wavefunction(s)  3P 3P 3D renormalized
     file Mn.rel-pbe-spn-kjpaw_psl.0.3.1.UPF: wavefunction(s)  3P 3P 3D renormalized
     file Bi.rel-pbe-dn-kjpaw_psl.1.0.0.UPF: wavefunction(s)  6P 6P 5D 5D renormalized
     file Te.rel-pbe-n-kjpaw_psl.1.0.0.UPF: wavefunction(s)  5S 5P 5P renormalized

     Fixed quantization axis for GGA:     0.000000    0.000000    1.000000
     Message from routine setup:
     using ibrav=0 with symmetry is DISCOURAGED, use correct ibrav instead
 
     R & G space division:  proc/nbgrp/npool/nimage =      32
     Subspace diagonalization in iterative solution of the eigenvalue problem:
     a serial algorithm will be used

 
     Parallelization info
     --------------------
     sticks:   dense  smooth     PW     G-vecs:    dense   smooth      PW
     Min         252     252     70                 5873     5873     871
     Max         253     253     71                 5875     5875     873
     Sum        8079    8079   2257               187971   187971   27897
 
     Using Slab Decomposition
 


     bravais-lattice index     =            0
     lattice parameter (alat)  =      51.7756  a.u.
     unit-cell volume          =    2994.5794 (a.u.)^3
     number of atoms/cell      =           14
     number of atomic types    =            4
     number of electrons       =       138.00
     number of Kohn-Sham states=          138
     kinetic-energy cutoff     =      60.0000  Ry
     charge density cutoff     =     240.0000  Ry
     scf convergence threshold =      3.0E-05
     mixing beta               =       0.7000
     number of iterations used =            8  plain     mixing
     Exchange-correlation= SLA  PW   PBX  PBC
                           (   1   4   3   4   0   0   0)
     Noncollinear calculation with spin-orbit

     Hubbard projectors: ortho-atomic
     Hubbard parameters of DFT+U (Liechtenstein formulation) in eV:
     U(Mn1-3d) =  4.0000
     U(Mn2-3d) =  4.0000
     DFT+U on averaged j=l+1/2,l-1/2 radial WFs

     Internal variables: lda_plus_u = T, lda_plus_u_kind = 1

     celldm(1)=  51.775642  celldm(2)=   0.000000  celldm(3)=   0.000000
     celldm(4)=   0.000000  celldm(5)=   0.000000  celldm(6)=   0.000000

     crystal axes: (cart. coord. in units of alat)
               a(1) = (   0.079085  -0.045660   0.995822 )  
               a(2) = (   0.000000   0.091319   0.995822 )  
               a(3) = (  -0.079085  -0.045660   0.995822 )  

     reciprocal axes: (cart. coord. in units 2 pi/alat)
               b(1) = (  6.322314 -3.650196  0.334731 )  
               b(2) = (  0.000000  7.300392  0.334734 )  
               b(3) = ( -6.322314 -3.650196  0.334731 )  


     PseudoPot. # 1 for Mn read from file:
     ./Mn.rel-pbe-spn-kjpaw_psl.0.3.1.UPF
     MD5 check sum: dfba1c7561257014502ac20495784078
     Pseudo is Projector augmented-wave + core cor, Zval = 15.0
     Generated using &quot;atomic&quot; code by A. Dal Corso  v.6.2.2
     Shape of augmentation charge: PSQ
     Using radial grid of 1187 points, 10 beta functions with: 
                l(1) =   0
                l(2) =   0
                l(3) =   1
                l(4) =   1
                l(5) =   1
                l(6) =   1
                l(7) =   2
                l(8) =   2
                l(9) =   2
               l(10) =   2
     Q(r) pseudized with 0 coefficients 


     PseudoPot. # 2 for Mn read from file:
     ./Mn.rel-pbe-spn-kjpaw_psl.0.3.1.UPF
     MD5 check sum: dfba1c7561257014502ac20495784078
     Pseudo is Projector augmented-wave + core cor, Zval = 15.0
     Generated using &quot;atomic&quot; code by A. Dal Corso  v.6.2.2
     Shape of augmentation charge: PSQ
     Using radial grid of 1187 points, 10 beta functions with: 
                l(1) =   0
                l(2) =   0
                l(3) =   1
                l(4) =   1
                l(5) =   1
                l(6) =   1
                l(7) =   2
                l(8) =   2
                l(9) =   2
               l(10) =   2
     Q(r) pseudized with 0 coefficients 


     PseudoPot. # 3 for Bi read from file:
     ./Bi.rel-pbe-dn-kjpaw_psl.1.0.0.UPF
     MD5 check sum: 8010b987e9fb97324c8de82fb26a3f7d
     Pseudo is Projector augmented-wave + core cor, Zval = 15.0
     Generated using &quot;atomic&quot; code by A. Dal Corso  v.6.2.2
     Shape of augmentation charge: PSQ
     Using radial grid of 1283 points, 10 beta functions with: 
                l(1) =   0
                l(2) =   0
                l(3) =   1
                l(4) =   1
                l(5) =   1
                l(6) =   1
                l(7) =   2
                l(8) =   2
                l(9) =   2
               l(10) =   2
     Q(r) pseudized with 0 coefficients 


     PseudoPot. # 4 for Te read from file:
     ./Te.rel-pbe-n-kjpaw_psl.1.0.0.UPF
     MD5 check sum: 8399411061dffbb19b40ade5049f5146
     Pseudo is Projector augmented-wave + core cor, Zval =  6.0
     Generated using &quot;atomic&quot; code by A. Dal Corso  v.6.3
     Shape of augmentation charge: PSQ
     Using radial grid of 1245 points, 10 beta functions with: 
                l(1) =   0
                l(2) =   0
                l(3) =   1
                l(4) =   1
                l(5) =   1
                l(6) =   1
                l(7) =   2
                l(8) =   2
                l(9) =   2
               l(10) =   2
     Q(r) pseudized with 0 coefficients 


     atomic species   valence    mass     pseudopotential
        Mn1           15.00    54.93800     Mn( 1.00)
        Mn2           15.00    54.93800     Mn( 1.00)
        Bi            15.00   208.98000     Bi( 1.00)
        Te             6.00   127.60300     Te( 1.00)

      4 Sym. Ops., with inversion, found


                                    s                        frac. trans.

      isym =  1     identity                                     

 Time Reversal            0
 cryst.   s( 1) = (     1          0          0      )
                  (     0          1          0      )
                  (     0          0          1      )

 cart.    s( 1) = (  1.0000000  0.0000000  0.0000000 )
                  (  0.0000000  1.0000000 -0.0000000 )
                  (  0.0000000  0.0000000  1.0000000 )


      isym =  2     180 deg rotation - cart. axis [1,0,0]        

 Time Reversal            1
 cryst.   s( 2) = (     0          0         -1      )
                  (     0         -1          0      )
                  (    -1          0          0      )

 cart.    s( 2) = (  1.0000000  0.0000000  0.0000000 )
                  (  0.0000000 -1.0000000  0.0000000 )
                  (  0.0000000  0.0000000 -1.0000000 )


      isym =  3     inversion                                    

 Time Reversal            0
 cryst.   s( 3) = (    -1          0          0      )
                  (     0         -1          0      )
                  (     0          0         -1      )

 cart.    s( 3) = ( -1.0000000  0.0000000  0.0000000 )
                  (  0.0000000 -1.0000000  0.0000000 )
                  (  0.0000000  0.0000000 -1.0000000 )


      isym =  4     inv. 180 deg rotation - cart. axis [1,0,0]   

 Time Reversal            1
 cryst.   s( 4) = (     0          0          1      )
                  (     0          1          0      )
                  (     1          0          0      )

 cart.    s( 4) = ( -1.0000000  0.0000000  0.0000000 )
                  (  0.0000000  1.0000000 -0.0000000 )
                  (  0.0000000  0.0000000  1.0000000 )


   Cartesian axes

     site n.     atom                  positions (alat units)
         1           Mn1 tau(   1) = (   0.0000000   0.0000000   0.0000000  )
         2           Mn2 tau(   2) = (   0.0000000  -0.0000005   1.4937325  )
         3           Bi  tau(   3) = (   0.0000000  -0.0000002   0.6346869  )
         4           Bi  tau(   4) = (   0.0000000  -0.0000007   2.1284194  )
         5           Bi  tau(   5) = (   0.0000000  -0.0000003   0.8590455  )
         6           Bi  tau(   6) = (   0.0000000  -0.0000008   2.3527780  )
         7           Te  tau(   7) = (   0.0000000  -0.0000001   0.1992042  )
         8           Te  tau(   8) = (   0.0000000  -0.0000006   1.6929366  )
         9           Te  tau(   9) = (   0.0000000  -0.0000004   1.2945283  )
        10           Te  tau(  10) = (   0.0000000  -0.0000009   2.7882608  )
        11           Te  tau(  11) = (   0.0000000  -0.0000001   0.4392470  )
        12           Te  tau(  12) = (   0.0000000  -0.0000006   1.9329794  )
        13           Te  tau(  13) = (   0.0000000  -0.0000004   1.0544855  )
        14           Te  tau(  14) = (   0.0000000  -0.0000009   2.5482179  )

     --------------------------------------------
     DFT-D3 Dispersion Correction (3-body terms):
     --------------------------------------------
       Reference C6 values for interpolation: 

         atom   Coordination number   C6
         Mn1        0.000          1605.50
         Mn1        1.641           479.11
         Mn1        9.885           227.69
         Mn2        0.000          1605.50
         Mn2        1.641           479.11
         Mn2        9.885           227.69
         Te         0.000           851.07
         Te         0.981           850.20
         Te         1.964           837.16
         Bi         0.000          1235.06
         Bi         0.982          1188.09
         Bi         1.966          1132.10
         Bi         2.950          1067.76

       Values used:

         atom   Coordination number  R0_AB[au]  C6      C8
         Mn1        3.848            3.351    479.11  48433.79
         Mn2        3.848            3.351    479.11  48433.79
         Bi         5.275            3.890   1067.76 147315.96
         Bi         5.275            3.890   1067.76 147315.96
         Bi         5.275            3.890   1067.76 147315.96
         Bi         5.275            3.890   1067.76 147315.96
         Te         3.328            3.676    837.16  84978.06
         Te         3.328            3.676    837.16  84978.06
         Te         3.328            3.676    837.16  84978.06
         Te         3.328            3.676    837.16  84978.06
         Te         4.238            3.676    837.16  84978.05
         Te         4.238            3.676    837.16  84978.05
         Te         4.238            3.676    837.16  84978.05
         Te         4.238            3.676    837.16  84978.05

         Molecular C6 ( Ry / a.u.^6 ) =    164642.77


   Crystallographic axes

     site n.     atom                  positions (cryst. coord.)
         1           Mn1 tau(   1) = (  0.0000000  0.0000000  0.0000000  )
         2           Mn2 tau(   2) = (  0.5000000  0.5000000  0.5000000  )
         3           Bi  tau(   3) = (  0.2124500  0.2124500  0.2124500  )
         4           Bi  tau(   4) = (  0.7124500  0.7124500  0.7124500  )
         5           Bi  tau(   5) = (  0.2875500  0.2875500  0.2875500  )
         6           Bi  tau(   6) = (  0.7875500  0.7875500  0.7875500  )
         7           Te  tau(   7) = (  0.0666800  0.0666800  0.0666800  )
         8           Te  tau(   8) = (  0.5666800  0.5666800  0.5666800  )
         9           Te  tau(   9) = (  0.4333200  0.4333200  0.4333200  )
        10           Te  tau(  10) = (  0.9333200  0.9333200  0.9333200  )
        11           Te  tau(  11) = (  0.1470300  0.1470300  0.1470300  )
        12           Te  tau(  12) = (  0.6470300  0.6470300  0.6470300  )
        13           Te  tau(  13) = (  0.3529700  0.3529700  0.3529700  )
        14           Te  tau(  14) = (  0.8529700  0.8529700  0.8529700  )

     number of k points=     6
                       cart. coord. in units 2pi/alat
        k(    1) = (   0.0000000   0.0000000   0.0000000), wk =   0.1250000
        k(    2) = (   3.1611569   1.8250979  -0.1673654), wk =   0.2500000
        k(    3) = (   0.0000000  -3.6501959  -0.1673672), wk =   0.1250000
        k(    4) = (   3.1611569  -1.8250979  -0.3347326), wk =   0.2500000
        k(    5) = (   0.0000000   3.6501959  -0.3347307), wk =   0.1250000
        k(    6) = (   0.0000000   0.0000000  -0.5020979), wk =   0.1250000

                       cryst. coord.
        k(    1) = (   0.0000000   0.0000000   0.0000000), wk =   0.1250000
        k(    2) = (   0.0000000  -0.0000000  -0.5000000), wk =   0.2500000
        k(    3) = (   0.0000000  -0.5000000   0.0000000), wk =   0.1250000
        k(    4) = (   0.0000000  -0.5000000  -0.5000000), wk =   0.2500000
        k(    5) = (  -0.5000000  -0.0000000  -0.5000000), wk =   0.1250000
        k(    6) = (  -0.5000000  -0.5000000  -0.5000000), wk =   0.1250000

     Dense  grid:   187971 G-vectors     FFT dimensions: ( 256, 256, 256)

     Dynamical RAM for                 wfc:       3.09 MB

     Dynamical RAM for     wfc (w. buffer):      21.64 MB

     Dynamical RAM for             U proj.:       0.99 MB

     Dynamical RAM for  U proj. (w. buff.):       6.90 MB

     Dynamical RAM for           str. fact:       0.36 MB

     Dynamical RAM for           local pot:       0.00 MB

     Dynamical RAM for          nlocal pot:       5.33 MB

     Dynamical RAM for                qrad:      13.03 MB

     Dynamical RAM for          rho,v,vnew:      49.08 MB

     Dynamical RAM for               rhoin:      16.36 MB

     Dynamical RAM for            rho*nmix:       5.74 MB

     Dynamical RAM for           G-vectors:       0.38 MB

     Dynamical RAM for          h,s,v(r/c):       3.49 MB

     Dynamical RAM for          <psi|beta>:       2.00 MB

     Dynamical RAM for                 psi:       6.18 MB

     Dynamical RAM for                hpsi:       6.18 MB

     Dynamical RAM for                spsi:       6.18 MB

     Dynamical RAM for      wfcinit/wfcrot:       5.07 MB

     Dynamical RAM for           addusdens:      55.66 MB

     Estimated static dynamical RAM per process >     145.52 MB

     Estimated max dynamical RAM per process >     206.92 MB

     Estimated total dynamical RAM >       6.47 GB

     Atomic positions and unit cell read from directory:
     ./tmp/MnBi2Te4.save/
     Message from routine qexsd_readschema :
     xml data file ./tmp/MnBi2Te4.save/data-file-schema.xml not found
     Nothing found: using input atomic positions and unit cell


     Check: negative core charge=   -0.000015
     Generating pointlists ...
     new r_m :   0.0448 (alat units)  2.3181 (a.u.) for type    1
     new r_m :   0.0448 (alat units)  2.3181 (a.u.) for type    2
     new r_m :   0.0456 (alat units)  2.3625 (a.u.) for type    3
     new r_m :   0.0448 (alat units)  2.3181 (a.u.) for type    4
     Cannot read rho : file not found

     Initial potential from superposition of free atoms

     starting charge     137.9938, renormalised to     138.0000
 --- in v_hubbard ---
Hub. E (dc, noflip, flip, total)    5.8799   5.8799  -0.0000   0.0000
 -------

     STARTING HUBBARD OCCUPATIONS:

     ================= HUBBARD OCCUPATIONS ================
     ------------------------ ATOM    1 ------------------------
     Tr[ns(  1)] (up, down, total) =   5.00000  0.00000  5.00000
     eigenvalues:
       0.000  0.000  0.000  0.000  0.000  1.000  1.000  1.000  1.000  1.000
     eigenvectors (columns):
       0.000  0.000  0.000  0.000  0.000  1.000  0.000  0.000  0.000  0.000
       0.000  0.000  0.000  0.000  0.000  0.000  1.000  0.000  0.000  0.000
       0.000  0.000  0.000  0.000  0.000  0.000  0.000  1.000  0.000  0.000
       0.000  0.000  0.000  0.000  0.000  0.000  0.000  0.000  1.000  0.000
       0.000  0.000  0.000  0.000  0.000  0.000  0.000  0.000  0.000  1.000
       1.000  0.000  0.000  0.000  0.000  0.000  0.000  0.000  0.000  0.000
       0.000  1.000  0.000  0.000  0.000  0.000  0.000  0.000  0.000  0.000
       0.000  0.000  1.000  0.000  0.000  0.000  0.000  0.000  0.000  0.000
       0.000  0.000  0.000  1.000  0.000  0.000  0.000  0.000  0.000  0.000
       0.000  0.000  0.000  0.000  1.000  0.000  0.000  0.000  0.000  0.000
     occupations, | n_(i1, i2)^(sigma1, sigma2) |:
       1.000  0.000  0.000  0.000  0.000  0.000  0.000  0.000  0.000  0.000
       0.000  1.000  0.000  0.000  0.000  0.000  0.000  0.000  0.000  0.000
       0.000  0.000  1.000  0.000  0.000  0.000  0.000  0.000  0.000  0.000
       0.000  0.000  0.000  1.000  0.000  0.000  0.000  0.000  0.000  0.000
       0.000  0.000  0.000  0.000  1.000  0.000  0.000  0.000  0.000  0.000
       0.000  0.000  0.000  0.000  0.000  0.000  0.000  0.000  0.000  0.000
       0.000  0.000  0.000  0.000  0.000  0.000  0.000  0.000  0.000  0.000
       0.000  0.000  0.000  0.000  0.000  0.000  0.000  0.000  0.000  0.000
       0.000  0.000  0.000  0.000  0.000  0.000  0.000  0.000  0.000  0.000
       0.000  0.000  0.000  0.000  0.000  0.000  0.000  0.000  0.000  0.000
     Atomic magnetic moment mx, my, mz =     0.000000    0.000000    5.000000
     ------------------------ ATOM    2 ------------------------
     Tr[ns(  2)] (up, down, total) =   0.00000  5.00000  5.00000
     eigenvalues:
      -0.000 -0.000 -0.000 -0.000 -0.000  1.000  1.000  1.000  1.000  1.000
     eigenvectors (columns):
       0.000  0.000  1.000  0.000  0.000  0.000  0.000  0.000  0.000  0.000
      -1.000  0.000  0.000  0.000  0.000  0.000  0.000 -0.000  0.000  0.000
       0.000  0.000  0.000  1.000  0.000  0.000  0.000  0.000  0.000  0.000
       0.000 -1.000  0.000  0.000  0.000  0.000  0.000  0.000  0.000  0.000
       0.000  0.000  0.000  0.000  1.000  0.000  0.000  0.000  0.000  0.000
       0.000  0.000 -0.000  0.000  0.000  0.000  0.000  0.000  0.000  1.000
       0.000  0.000  0.000  0.000  0.000  0.000  0.000 -1.000  0.000  0.000
       0.000  0.000  0.000 -0.000  0.000  0.000  1.000  0.000  0.000  0.000
       0.000  0.000  0.000  0.000  0.000  1.000  0.000  0.000  0.000  0.000
       0.000  0.000  0.000  0.000 -0.000  0.000  0.000  0.000  1.000  0.000
     occupations, | n_(i1, i2)^(sigma1, sigma2) |:
       0.000  0.000  0.000  0.000  0.000  0.000  0.000  0.000  0.000  0.000
       0.000  0.000  0.000  0.000  0.000  0.000  0.000  0.000  0.000  0.000
       0.000  0.000  0.000  0.000  0.000  0.000  0.000  0.000  0.000  0.000
       0.000  0.000  0.000  0.000  0.000  0.000  0.000  0.000  0.000  0.000
       0.000  0.000  0.000  0.000  0.000  0.000  0.000  0.000  0.000  0.000
       0.000  0.000  0.000  0.000  0.000  1.000  0.000  0.000  0.000  0.000
       0.000  0.000  0.000  0.000  0.000  0.000  1.000  0.000  0.000  0.000
       0.000  0.000  0.000  0.000  0.000  0.000  0.000  1.000  0.000  0.000
       0.000  0.000  0.000  0.000  0.000  0.000  0.000  0.000  1.000  0.000
       0.000  0.000  0.000  0.000  0.000  0.000  0.000  0.000  0.000  1.000
     Atomic magnetic moment mx, my, mz =     0.000000    0.000000   -5.000000

     Number of occupied Hubbard levels =   10.0000

 ==============================================================================
     atom number    1 relative position :    0.0000   0.0000   0.0000
     charge :    13.702625  (integrated on a sphere of radius 0.045)
     magnetization :          0.000000    0.000000    4.474670
     magnetization/charge:    0.000000    0.000000    0.326556
     polar coord.: r, theta, phi [deg] :     4.474670    0.000000  360.000000

 ==============================================================================

 ==============================================================================
     atom number    2 relative position :    0.0000  -0.0000   1.4937
     charge :    13.702625  (integrated on a sphere of radius 0.045)
     magnetization :          0.000000    0.000000   -4.474670
     magnetization/charge:    0.000000    0.000000   -0.326556
     polar coord.: r, theta, phi [deg] :     4.474670  180.000000  360.000000

 ==============================================================================

 ==============================================================================
     atom number    3 relative position :    0.0000  -0.0000   0.6347
     charge :    12.834981  (integrated on a sphere of radius 0.046)
     magnetization :          0.000000    0.000000   -0.000781
     magnetization/charge:    0.000000    0.000000   -0.000061
     polar coord.: r, theta, phi [deg] :     0.000781  180.000000  360.000000

 ==============================================================================

 ==============================================================================
     atom number    4 relative position :    0.0000  -0.0000   2.1284
     charge :    12.834981  (integrated on a sphere of radius 0.046)
     magnetization :         -0.000000    0.000000    0.000781
     magnetization/charge:   -0.000000    0.000000    0.000061
     polar coord.: r, theta, phi [deg] :     0.000781    0.000000  360.000000

 ==============================================================================

 ==============================================================================
     atom number    5 relative position :    0.0000  -0.0000   0.8590
     charge :    12.834981  (integrated on a sphere of radius 0.046)
     magnetization :         -0.000000    0.000000    0.000781
     magnetization/charge:   -0.000000    0.000000    0.000061
     polar coord.: r, theta, phi [deg] :     0.000781    0.000000  360.000000

 ==============================================================================

 ==============================================================================
     atom number    6 relative position :    0.0000  -0.0000   2.3528
     charge :    12.834981  (integrated on a sphere of radius 0.046)
     magnetization :          0.000000    0.000000   -0.000781
     magnetization/charge:    0.000000    0.000000   -0.000061
     polar coord.: r, theta, phi [deg] :     0.000781  180.000000  360.000000

 ==============================================================================

 ==============================================================================
     atom number    7 relative position :    0.0000  -0.0000   0.1992
     charge :     3.754753  (integrated on a sphere of radius 0.045)
     magnetization :         -0.000000    0.000000    0.000018
     magnetization/charge:   -0.000000    0.000000    0.000005
     polar coord.: r, theta, phi [deg] :     0.000018    0.000000  360.000000

 ==============================================================================

 ==============================================================================
     atom number    8 relative position :    0.0000  -0.0000   1.6929
     charge :     3.754753  (integrated on a sphere of radius 0.045)
     magnetization :          0.000000    0.000000   -0.000018
     magnetization/charge:    0.000000    0.000000   -0.000005
     polar coord.: r, theta, phi [deg] :     0.000018  180.000000  360.000000

 ==============================================================================

 ==============================================================================
     atom number    9 relative position :    0.0000  -0.0000   1.2945
     charge :     3.754753  (integrated on a sphere of radius 0.045)
     magnetization :          0.000000    0.000000   -0.000018
     magnetization/charge:    0.000000    0.000000   -0.000005
     polar coord.: r, theta, phi [deg] :     0.000018  180.000000  360.000000

 ==============================================================================

 ==============================================================================
     atom number   10 relative position :    0.0000  -0.0000   2.7883
     charge :     3.754753  (integrated on a sphere of radius 0.045)
     magnetization :         -0.000000    0.000000    0.000018
     magnetization/charge:   -0.000000    0.000000    0.000005
     polar coord.: r, theta, phi [deg] :     0.000018    0.000000  360.000000

 ==============================================================================

 ==============================================================================
     atom number   11 relative position :    0.0000  -0.0000   0.4392
     charge :     3.788446  (integrated on a sphere of radius 0.045)
     magnetization :          0.000000    0.000000   -0.035317
     magnetization/charge:    0.000000    0.000000   -0.009322
     polar coord.: r, theta, phi [deg] :     0.035317  180.000000  360.000000

 ==============================================================================

 ==============================================================================
     atom number   12 relative position :    0.0000  -0.0000   1.9330
     charge :     3.788446  (integrated on a sphere of radius 0.045)
     magnetization :         -0.000000    0.000000    0.035317
     magnetization/charge:   -0.000000    0.000000    0.009322
     polar coord.: r, theta, phi [deg] :     0.035317    0.000000  360.000000

 ==============================================================================

 ==============================================================================
     atom number   13 relative position :    0.0000  -0.0000   1.0545
     charge :     3.788446  (integrated on a sphere of radius 0.045)
     magnetization :         -0.000000    0.000000    0.035317
     magnetization/charge:   -0.000000    0.000000    0.009322
     polar coord.: r, theta, phi [deg] :     0.035317    0.000000  360.000000

 ==============================================================================

 ==============================================================================
     atom number   14 relative position :    0.0000  -0.0000   2.5482
     charge :     3.788446  (integrated on a sphere of radius 0.045)
     magnetization :          0.000000    0.000000   -0.035317
     magnetization/charge:    0.000000    0.000000   -0.009322
     polar coord.: r, theta, phi [deg] :     0.035317  180.000000  360.000000

 ==============================================================================

     Atomic wfc used for Hubbard projectors are orthogonalized

     Message from routine qexsd_readschema :
     xml data file ./tmp/MnBi2Te4.save/data-file-schema.xml not found
     Cannot read wfcs: file not found
     Starting wfcs are  176 randomized atomic wfcs
     Checking if some PAW data can be deallocated... 
       PAW data deallocated on   29 nodes for type:  1
       PAW data deallocated on   29 nodes for type:  2
       PAW data deallocated on   22 nodes for type:  3
       PAW data deallocated on   16 nodes for type:  4

     total cpu time spent up to now is       91.9 secs

     Self-consistent Calculation

     iteration #  1     ecut=    60.00 Ry     beta= 0.70
     Davidson diagonalization with overlap

---- Real-time Memory Report at c_bands before calling an iterative solver
           318 MiB given to the printing process from OS
             0 MiB allocation reported by mallinfo(arena+hblkhd)
        114089 MiB available memory on the node where the printing process lives
------------------
     c_bands:  2 eigenvalues not converged
     c_bands:  4 eigenvalues not converged
     ethr =  1.00E-05,  avg # of iterations = 14.2

     ================= HUBBARD OCCUPATIONS ================
     ------------------------ ATOM    1 ------------------------
     Tr[ns(  1)] (up, down, total) =   4.98331  0.28467  5.26798
     eigenvalues:
       0.017  0.017  0.017  0.116  0.119  0.994  0.995  0.998  0.998  0.998
     eigenvectors (columns):
       0.004  0.002  0.001 -0.005 -0.000 -0.000 -0.001 -0.001 -0.001 -1.000
      -0.000 -0.000 -0.000 -0.000  0.000  0.000 -0.000 -0.000 -0.000  0.000
       0.002 -0.005  0.001 -0.000  0.002 -0.540 -0.519  0.460 -0.477  0.000
      -0.001  0.001  0.002 -0.000  0.003  0.460  0.477  0.540 -0.518 -0.001
       0.000 -0.000  0.000 -0.000  0.000 -0.000  0.000 -0.000 -0.000  0.000
       0.000  0.000 -0.000 -0.000 -0.000  0.000 -0.000 -0.000 -0.000  0.000
       0.563 -0.077 -0.294 -0.555 -0.533 -0.000  0.003  0.000 -0.003  0.004
      -0.000  0.000 -0.000  0.000 -0.000  0.000 -0.000 -0.000  0.000 -0.000
      -0.000  0.000 -0.000 -0.000  0.000  0.000 -0.000  0.000  0.000 -0.000
       0.697 -0.055 -0.319  0.429  0.474  0.000  0.003 -0.000  0.003  0.000
     occupations, | n_(i1, i2)^(sigma1, sigma2) |:
       0.998  0.000  0.000  0.000  0.000  0.000  0.004  0.004  0.000  0.000
       0.000  0.996  0.001  0.000  0.002  0.004  0.000  0.000  0.002  0.002
       0.000  0.001  0.996  0.002  0.000  0.004  0.000  0.000  0.002  0.002
       0.000  0.000  0.002  0.996  0.000  0.000  0.003  0.003  0.000  0.000
       0.000  0.002  0.000  0.000  0.996  0.000  0.003  0.003  0.000  0.000
       0.000  0.004  0.004  0.000  0.000  0.017  0.000  0.000  0.000  0.000
       0.004  0.000  0.000  0.003  0.003  0.000  0.076  0.002  0.001  0.049
       0.004  0.000  0.000  0.003  0.003  0.000  0.002  0.076  0.049  0.001
       0.000  0.002  0.002  0.000  0.000  0.000  0.001  0.049  0.058  0.004
       0.000  0.002  0.002  0.000  0.000  0.000  0.049  0.001  0.004  0.058
     Atomic magnetic moment mx, my, mz =     0.000000   -0.000055    4.698637
     ------------------------ ATOM    2 ------------------------
     Tr[ns(  2)] (up, down, total) =   0.28498  4.98329  5.26828
     eigenvalues:
       0.017  0.017  0.017  0.116  0.119  0.994  0.995  0.998  0.998  0.998
     eigenvectors (columns):
       0.246 -0.261 -0.933  0.001  0.001 -0.004 -0.000  0.004  0.000 -0.000
       0.000 -0.000 -0.000  0.000 -0.000 -0.000  0.000 -0.000  0.000 -0.000
      -0.500  0.330 -0.225 -0.569 -0.516 -0.000  0.003 -0.000  0.003 -0.004
      -0.630  0.351 -0.264  0.443  0.462 -0.000  0.003  0.000 -0.003 -0.000
       0.000 -0.000 -0.000 -0.000  0.000 -0.000  0.000  0.000 -0.000 -0.000
      -0.000  0.000  0.000 -0.000  0.000 -0.000 -0.000 -0.000 -0.000 -0.000
       0.002 -0.004 -0.003 -0.000 -0.002  0.533  0.522 -0.458 -0.483  0.002
      -0.000  0.000  0.000 -0.000 -0.000 -0.000  0.000  0.000 -0.000  0.000
      -0.000  0.000  0.000 -0.000 -0.000  0.000 -0.000  0.000 -0.000  0.000
      -0.000  0.002 -0.001 -0.000 -0.003 -0.458 -0.483 -0.534 -0.522  0.002
     occupations, | n_(i1, i2)^(sigma1, sigma2) |:
       0.017  0.000  0.000  0.000  0.000  0.000  0.004  0.004  0.000  0.000
       0.000  0.076  0.003  0.001  0.049  0.004  0.000  0.000  0.003  0.003
       0.000  0.003  0.076  0.049  0.001  0.004  0.000  0.000  0.003  0.003
       0.000  0.001  0.049  0.058  0.004  0.001  0.002  0.002  0.000  0.000
       0.000  0.049  0.001  0.004  0.058  0.001  0.002  0.002  0.000  0.000
       0.000  0.004  0.004  0.001  0.001  0.998  0.000  0.000  0.000  0.000
       0.004  0.000  0.000  0.002  0.002  0.000  0.996  0.001  0.000  0.002
       0.004  0.000  0.000  0.002  0.002  0.000  0.001  0.996  0.002  0.000
       0.000  0.003  0.003  0.000  0.000  0.000  0.000  0.002  0.996  0.000
       0.000  0.003  0.003  0.000  0.000  0.000  0.002  0.000  0.000  0.996
     Atomic magnetic moment mx, my, mz =    -0.000000    0.000045   -4.698307

     Number of occupied Hubbard levels =   10.5363
 --- in v_hubbard ---
Hub. E (dc, noflip, flip, total)    6.3869   6.4448  -0.0000   0.0579
 -------

 ==============================================================================
     atom number    1 relative position :    0.0000   0.0000   0.0000
     charge :    13.660859  (integrated on a sphere of radius 0.045)
     magnetization :         -0.000000    0.000057    4.580806
     magnetization/charge:   -0.000000    0.000004    0.335323
     polar coord.: r, theta, phi [deg] :     4.580806    0.000708   90.000000

 ==============================================================================

 ==============================================================================
     atom number    2 relative position :    0.0000  -0.0000   1.4937
     charge :    13.661321  (integrated on a sphere of radius 0.045)
     magnetization :          0.000000   -0.000001   -4.580808
     magnetization/charge:    0.000000   -0.000000   -0.335312
     polar coord.: r, theta, phi [deg] :     4.580808  179.999984  -90.000000

 ==============================================================================

 ==============================================================================
     atom number    3 relative position :    0.0000  -0.0000   0.6347
     charge :    12.519777  (integrated on a sphere of radius 0.046)
     magnetization :         -0.000000    0.000115   -0.006766
     magnetization/charge:   -0.000000    0.000009   -0.000540
     polar coord.: r, theta, phi [deg] :     0.006767  179.028504   90.000000

 ==============================================================================

 ==============================================================================
     atom number    4 relative position :    0.0000  -0.0000   2.1284
     charge :    12.518706  (integrated on a sphere of radius 0.046)
     magnetization :          0.000000   -0.000126    0.006854
     magnetization/charge:    0.000000   -0.000010    0.000547
     polar coord.: r, theta, phi [deg] :     0.006855    1.051064  -90.000000

 ==============================================================================

 ==============================================================================
     atom number    5 relative position :    0.0000  -0.0000   0.8590
     charge :    12.518706  (integrated on a sphere of radius 0.046)
     magnetization :         -0.000000   -0.000126    0.006854
     magnetization/charge:   -0.000000   -0.000010    0.000547
     polar coord.: r, theta, phi [deg] :     0.006855    1.051064  -90.000000

 ==============================================================================

 ==============================================================================
     atom number    6 relative position :    0.0000  -0.0000   2.3528
     charge :    12.519777  (integrated on a sphere of radius 0.046)
     magnetization :         -0.000000    0.000115   -0.006766
     magnetization/charge:   -0.000000    0.000009   -0.000540
     polar coord.: r, theta, phi [deg] :     0.006767  179.028504   90.000000

 ==============================================================================

 ==============================================================================
     atom number    7 relative position :    0.0000  -0.0000   0.1992
     charge :     3.889534  (integrated on a sphere of radius 0.045)
     magnetization :          0.000000    0.000331    0.006459
     magnetization/charge:    0.000000    0.000085    0.001661
     polar coord.: r, theta, phi [deg] :     0.006468    2.931434   90.000000

 ==============================================================================

 ==============================================================================
     atom number    8 relative position :    0.0000  -0.0000   1.6929
     charge :     3.890158  (integrated on a sphere of radius 0.045)
     magnetization :         -0.000000    0.000389   -0.003837
     magnetization/charge:   -0.000000    0.000100   -0.000986
     polar coord.: r, theta, phi [deg] :     0.003856  174.217922   90.000000

 ==============================================================================

 ==============================================================================
     atom number    9 relative position :    0.0000  -0.0000   1.2945
     charge :     3.890158  (integrated on a sphere of radius 0.045)
     magnetization :          0.000000    0.000389   -0.003837
     magnetization/charge:    0.000000    0.000100   -0.000986
     polar coord.: r, theta, phi [deg] :     0.003856  174.217922   90.000000

 ==============================================================================

 ==============================================================================
     atom number   10 relative position :    0.0000  -0.0000   2.7883
     charge :     3.889534  (integrated on a sphere of radius 0.045)
     magnetization :          0.000000    0.000331    0.006459
     magnetization/charge:    0.000000    0.000085    0.001661
     polar coord.: r, theta, phi [deg] :     0.006468    2.931434   90.000000

 ==============================================================================

 ==============================================================================
     atom number   11 relative position :    0.0000  -0.0000   0.4392
     charge :     4.008080  (integrated on a sphere of radius 0.045)
     magnetization :          0.000000    0.000035   -0.026835
     magnetization/charge:    0.000000    0.000009   -0.006695
     polar coord.: r, theta, phi [deg] :     0.026835  179.925725   90.000000

 ==============================================================================

 ==============================================================================
     atom number   12 relative position :    0.0000  -0.0000   1.9330
     charge :     4.007621  (integrated on a sphere of radius 0.045)
     magnetization :          0.000000   -0.000081    0.026699
     magnetization/charge:    0.000000   -0.000020    0.006662
     polar coord.: r, theta, phi [deg] :     0.026699    0.173167  -90.000000

 ==============================================================================

 ==============================================================================
     atom number   13 relative position :    0.0000  -0.0000   1.0545
     charge :     4.007621  (integrated on a sphere of radius 0.045)
     magnetization :          0.000000   -0.000081    0.026699
     magnetization/charge:    0.000000   -0.000020    0.006662
     polar coord.: r, theta, phi [deg] :     0.026699    0.173167  -90.000000

 ==============================================================================

 ==============================================================================
     atom number   14 relative position :    0.0000  -0.0000   2.5482
     charge :     4.008080  (integrated on a sphere of radius 0.045)
     magnetization :          0.000000    0.000035   -0.026835
     magnetization/charge:    0.000000    0.000009   -0.006695
     polar coord.: r, theta, phi [deg] :     0.026835  179.925725   90.000000

 ==============================================================================

     total cpu time spent up to now is      465.8 secs

     total energy              =   -7140.03003495 Ry
     estimated scf accuracy    <       0.58440423 Ry

     total magnetization       =     0.00     0.00     0.01 Bohr mag/cell
     absolute magnetization    =    10.06 Bohr mag/cell

     iteration #  2     ecut=    60.00 Ry     beta= 0.70
     Davidson diagonalization with overlap

---- Real-time Memory Report at c_bands before calling an iterative solver
           440 MiB given to the printing process from OS
             0 MiB allocation reported by mallinfo(arena+hblkhd)
        110099 MiB available memory on the node where the printing process lives
------------------
     ethr =  4.23E-04,  avg # of iterations = 11.7

     ================= HUBBARD OCCUPATIONS ================
     ------------------------ ATOM    1 ------------------------
     Tr[ns(  1)] (up, down, total) =   4.87279  0.09370  4.96648
     eigenvalues:
       0.006  0.007  0.007  0.035  0.040  0.935  0.959  0.992  0.993  0.994
     eigenvectors (columns):
      -0.000  0.001 -0.004  0.008  0.000  0.001  0.000  0.001 -0.006  1.000
       0.000  0.000  0.000  0.000 -0.000  0.000  0.000  0.000  0.000 -0.000
      -0.004  0.005  0.001  0.000 -0.003  0.532  0.534 -0.466  0.463  0.003
       0.003 -0.000 -0.000 -0.000 -0.004 -0.467 -0.461 -0.530  0.536  0.004
      -0.000 -0.000  0.000  0.000 -0.000 -0.000 -0.000  0.000  0.000 -0.000
      -0.000 -0.000 -0.000  0.000 -0.000  0.000  0.000  0.000  0.000 -0.000
      -0.435  0.102 -0.424  0.551  0.562 -0.000 -0.003 -0.000  0.004 -0.006
       0.000  0.000 -0.000 -0.000  0.000  0.000 -0.000  0.000 -0.000 -0.000
       0.000  0.000  0.000  0.000 -0.000  0.000 -0.000 -0.000  0.000  0.000
      -0.557  0.138 -0.539 -0.433 -0.438  0.000 -0.003  0.000 -0.003  0.001
     occupations, | n_(i1, i2)^(sigma1, sigma2) |:
       0.994  0.000  0.000  0.000  0.000  0.000  0.006  0.006  0.001  0.001
       0.000  0.967  0.007  0.006  0.022  0.005  0.000  0.000  0.003  0.003
       0.000  0.007  0.967  0.023  0.006  0.005  0.000  0.000  0.003  0.003
       0.000  0.006  0.023  0.973  0.005  0.000  0.003  0.003  0.000  0.000
       0.000  0.022  0.006  0.005  0.973  0.000  0.003  0.003  0.000  0.000
       0.000  0.005  0.005  0.000  0.000  0.007  0.000  0.000  0.000  0.000
       0.006  0.000  0.000  0.003  0.003  0.000  0.026  0.002  0.002  0.015
       0.006  0.000  0.000  0.003  0.003  0.000  0.002  0.026  0.015  0.001
       0.001  0.003  0.003  0.000  0.000  0.000  0.002  0.015  0.018  0.001
       0.001  0.003  0.003  0.000  0.000  0.000  0.015  0.001  0.001  0.018
     Atomic magnetic moment mx, my, mz =    -0.000000   -0.000128    4.779087
     ------------------------ ATOM    2 ------------------------
     Tr[ns(  2)] (up, down, total) =   0.08707  4.86347  4.95055
     eigenvalues:
       0.006  0.006  0.006  0.029  0.039  0.934  0.952  0.992  0.992  0.994
     eigenvectors (columns):
      -0.020  0.022  1.000 -0.001  0.001  0.006  0.000 -0.003  0.004 -0.000
      -0.000 -0.000 -0.000  0.000  0.000  0.000 -0.000  0.000  0.000  0.000
      -0.445 -0.407  0.000  0.575  0.552 -0.000 -0.003 -0.003 -0.002 -0.006
      -0.563 -0.564  0.001 -0.417 -0.436  0.000 -0.003  0.003  0.002  0.001
      -0.000 -0.000 -0.000 -0.000 -0.000  0.000 -0.000 -0.000 -0.000 -0.000
      -0.000  0.000  0.000 -0.000 -0.000  0.000  0.000  0.000 -0.000  0.000
       0.003  0.000  0.005  0.000  0.003 -0.532 -0.520  0.659 -0.109 -0.001
      -0.000  0.000  0.000  0.000  0.000  0.000 -0.000 -0.000 -0.000 -0.000
       0.000 -0.000 -0.000 -0.000 -0.000 -0.000  0.000 -0.000 -0.000  0.000
      -0.003  0.000 -0.000 -0.000  0.004  0.464  0.480  0.731 -0.142 -0.000
     occupations, | n_(i1, i2)^(sigma1, sigma2) |:
       0.006  0.000  0.000  0.000  0.000  0.000  0.005  0.005  0.000  0.000
       0.000  0.024  0.002  0.003  0.014  0.006  0.000  0.000  0.003  0.003
       0.000  0.002  0.024  0.014  0.003  0.006  0.000  0.000  0.003  0.003
       0.000  0.003  0.014  0.016  0.002  0.001  0.003  0.003  0.000  0.000
       0.000  0.014  0.003  0.002  0.016  0.001  0.003  0.003  0.000  0.000
       0.000  0.006  0.006  0.001  0.001  0.993  0.000  0.000  0.000  0.000
       0.005  0.000  0.000  0.003  0.003  0.000  0.965  0.006  0.004  0.024
       0.005  0.000  0.000  0.003  0.003  0.000  0.006  0.965  0.024  0.004
       0.000  0.003  0.003  0.000  0.000  0.000  0.004  0.024  0.970  0.003
       0.000  0.003  0.003  0.000  0.000  0.000  0.024  0.004  0.003  0.970
     Atomic magnetic moment mx, my, mz =     0.000000    0.000299   -4.776397

     Number of occupied Hubbard levels =    9.9170
 --- in v_hubbard ---
Hub. E (dc, noflip, flip, total)    6.3298   6.3884  -0.0000   0.0586
 -------

 ==============================================================================
     atom number    1 relative position :    0.0000   0.0000   0.0000
     charge :    13.605027  (integrated on a sphere of radius 0.045)
     magnetization :         -0.000000    0.000057    4.579362
     magnetization/charge:   -0.000000    0.000004    0.336593
     polar coord.: r, theta, phi [deg] :     4.579362    0.000714   90.000000

 ==============================================================================

 ==============================================================================
     atom number    2 relative position :    0.0000  -0.0000   1.4937
     charge :    13.603171  (integrated on a sphere of radius 0.045)
     magnetization :          0.000000    0.000014   -4.578747
     magnetization/charge:    0.000000    0.000001   -0.336594
     polar coord.: r, theta, phi [deg] :     4.578747  179.999825   90.000000

 ==============================================================================

 ==============================================================================
     atom number    3 relative position :    0.0000  -0.0000   0.6347
     charge :    12.585768  (integrated on a sphere of radius 0.046)
     magnetization :          0.000000    0.000126   -0.007784
     magnetization/charge:    0.000000    0.000010   -0.000618
     polar coord.: r, theta, phi [deg] :     0.007785  179.071179   90.000000

 ==============================================================================

 ==============================================================================
     atom number    4 relative position :    0.0000  -0.0000   2.1284
     charge :    12.587349  (integrated on a sphere of radius 0.046)
     magnetization :          0.000000   -0.000161    0.009620
     magnetization/charge:    0.000000   -0.000013    0.000764
     polar coord.: r, theta, phi [deg] :     0.009621    0.958991  -90.000000

 ==============================================================================

 ==============================================================================
     atom number    5 relative position :    0.0000  -0.0000   0.8590
     charge :    12.587349  (integrated on a sphere of radius 0.046)
     magnetization :          0.000000   -0.000161    0.009620
     magnetization/charge:    0.000000   -0.000013    0.000764
     polar coord.: r, theta, phi [deg] :     0.009621    0.958991  -90.000000

 ==============================================================================

 ==============================================================================
     atom number    6 relative position :    0.0000  -0.0000   2.3528
     charge :    12.585768  (integrated on a sphere of radius 0.046)
     magnetization :          0.000000    0.000126   -0.007784
     magnetization/charge:    0.000000    0.000010   -0.000618
     polar coord.: r, theta, phi [deg] :     0.007785  179.071179   90.000000

 ==============================================================================

 ==============================================================================
     atom number    7 relative position :    0.0000  -0.0000   0.1992
     charge :     3.919404  (integrated on a sphere of radius 0.045)
     magnetization :          0.000000    0.000317    0.007705
     magnetization/charge:    0.000000    0.000081    0.001966
     polar coord.: r, theta, phi [deg] :     0.007712    2.357874   90.000000

 ==============================================================================

 ==============================================================================
     atom number    8 relative position :    0.0000  -0.0000   1.6929
     charge :     3.919738  (integrated on a sphere of radius 0.045)
     magnetization :         -0.000000    0.000386   -0.004157
     magnetization/charge:   -0.000000    0.000099   -0.001061
     polar coord.: r, theta, phi [deg] :     0.004175  174.691675   90.000000

 ==============================================================================

 ==============================================================================
     atom number    9 relative position :    0.0000  -0.0000   1.2945
     charge :     3.919738  (integrated on a sphere of radius 0.045)
     magnetization :         -0.000000    0.000386   -0.004157
     magnetization/charge:   -0.000000    0.000099   -0.001061
     polar coord.: r, theta, phi [deg] :     0.004175  174.691675   90.000000

 ==============================================================================

 ==============================================================================
     atom number   10 relative position :    0.0000  -0.0000   2.7883
     charge :     3.919404  (integrated on a sphere of radius 0.045)
     magnetization :          0.000000    0.000317    0.007705
     magnetization/charge:    0.000000    0.000081    0.001966
     polar coord.: r, theta, phi [deg] :     0.007712    2.357874   90.000000

 ==============================================================================

 ==============================================================================
     atom number   11 relative position :    0.0000  -0.0000   0.4392
     charge :     3.912753  (integrated on a sphere of radius 0.045)
     magnetization :          0.000000   -0.000018   -0.018851
     magnetization/charge:    0.000000   -0.000005   -0.004818
     polar coord.: r, theta, phi [deg] :     0.018851  179.946355  -90.000000

 ==============================================================================

 ==============================================================================
     atom number   12 relative position :    0.0000  -0.0000   1.9330
     charge :     3.918060  (integrated on a sphere of radius 0.045)
     magnetization :          0.000000   -0.000109    0.018163
     magnetization/charge:    0.000000   -0.000028    0.004636
     polar coord.: r, theta, phi [deg] :     0.018164    0.344430  -90.000000

 ==============================================================================

 ==============================================================================
     atom number   13 relative position :    0.0000  -0.0000   1.0545
     charge :     3.918060  (integrated on a sphere of radius 0.045)
     magnetization :          0.000000   -0.000109    0.018163
     magnetization/charge:    0.000000   -0.000028    0.004636
     polar coord.: r, theta, phi [deg] :     0.018164    0.344430  -90.000000

 ==============================================================================

 ==============================================================================
     atom number   14 relative position :    0.0000  -0.0000   2.5482
     charge :     3.912753  (integrated on a sphere of radius 0.045)
     magnetization :          0.000000   -0.000018   -0.018851
     magnetization/charge:    0.000000   -0.000005   -0.004818
     polar coord.: r, theta, phi [deg] :     0.018851  179.946355  -90.000000

 ==============================================================================

     total cpu time spent up to now is      710.5 secs

     total energy              =   -7138.76679174 Ry
     estimated scf accuracy    <      14.94705485 Ry

     total magnetization       =     0.00    -0.00     0.11 Bohr mag/cell
     absolute magnetization    =    10.43 Bohr mag/cell

     iteration #  3     ecut=    60.00 Ry     beta= 0.70
     Davidson diagonalization with overlap

---- Real-time Memory Report at c_bands before calling an iterative solver
           462 MiB given to the printing process from OS
             0 MiB allocation reported by mallinfo(arena+hblkhd)
        109784 MiB available memory on the node where the printing process lives
------------------
     c_bands:  1 eigenvalues not converged
     c_bands:  1 eigenvalues not converged
     ethr =  4.23E-04,  avg # of iterations = 12.7

     ================= HUBBARD OCCUPATIONS ================
     ------------------------ ATOM    1 ------------------------
     Tr[ns(  1)] (up, down, total) =   4.98243  0.31233  5.29476
     eigenvalues:
       0.015  0.016  0.016  0.132  0.134  0.995  0.995  0.997  0.998  0.998
     eigenvectors (columns):
      -0.005  0.001  0.000  0.006 -0.001  0.002 -0.004 -0.000  0.002 -1.000
       0.000  0.000 -0.000  0.000 -0.000 -0.000  0.000 -0.000 -0.000  0.000
      -0.001 -0.005  0.005 -0.001 -0.003  0.537 -0.510  0.460 -0.490  0.002
      -0.000 -0.001 -0.003 -0.001 -0.004 -0.519  0.426  0.548 -0.498 -0.004
      -0.000 -0.000 -0.000  0.000 -0.000  0.000 -0.000 -0.000 -0.000  0.000
      -0.000 -0.000  0.000  0.000  0.000 -0.000  0.000 -0.000 -0.000 -0.000
      -0.418  0.134  0.443  0.662  0.415 -0.003 -0.000  0.000 -0.004  0.005
       0.000 -0.000  0.000 -0.000  0.000 -0.000  0.000  0.000  0.000 -0.000
       0.000 -0.000  0.000  0.000 -0.000 -0.000  0.000  0.000  0.000  0.000
      -0.555  0.164  0.526 -0.512 -0.357 -0.003 -0.000 -0.000  0.003  0.000
     occupations, | n_(i1, i2)^(sigma1, sigma2) |:
       0.998  0.000  0.000  0.000  0.000  0.000  0.005  0.005  0.000  0.000
       0.000  0.996  0.000  0.000  0.001  0.005  0.000  0.000  0.003  0.003
       0.000  0.000  0.996  0.001  0.000  0.005  0.000  0.000  0.003  0.003
       0.000  0.000  0.001  0.996  0.000  0.000  0.003  0.003  0.000  0.000
       0.000  0.001  0.000  0.000  0.996  0.000  0.003  0.003  0.000  0.000
       0.000  0.005  0.005  0.000  0.000  0.016  0.000  0.000  0.000  0.000
       0.005  0.000  0.000  0.003  0.003  0.000  0.087  0.002  0.001  0.057
       0.005  0.000  0.000  0.003  0.003  0.000  0.002  0.087  0.057  0.001
       0.000  0.003  0.003  0.000  0.000  0.000  0.001  0.057  0.061  0.003
       0.000  0.003  0.003  0.000  0.000  0.000  0.057  0.001  0.003  0.061
     Atomic magnetic moment mx, my, mz =     0.000000   -0.000174    4.670099
     ------------------------ ATOM    2 ------------------------
     Tr[ns(  2)] (up, down, total) =   0.33330  4.98467  5.31797
     eigenvalues:
       0.016  0.017  0.020  0.139  0.141  0.996  0.996  0.998  0.998  0.998
     eigenvectors (columns):
      -0.010  0.050 -0.999 -0.000 -0.002  0.001 -0.005 -0.005 -0.000 -0.000
      -0.000 -0.000  0.000 -0.000 -0.000 -0.000  0.000  0.000 -0.000 -0.000
       0.425 -0.459 -0.026  0.582 -0.519  0.004  0.000 -0.000 -0.004  0.005
       0.555 -0.546 -0.034 -0.444  0.442  0.004  0.001 -0.000  0.004  0.000
      -0.000 -0.000  0.000  0.000  0.000 -0.000  0.000 -0.000  0.000  0.000
       0.000  0.000 -0.000  0.000  0.000 -0.000 -0.000  0.000  0.000 -0.000
      -0.000  0.004 -0.005  0.000 -0.003  0.449  0.560  0.473  0.510  0.006
       0.000  0.000  0.000 -0.000 -0.000 -0.000  0.000 -0.000  0.000  0.000
       0.000  0.000  0.000 -0.000  0.000  0.000 -0.000 -0.000  0.000  0.000
       0.000 -0.004 -0.001  0.000 -0.004 -0.473 -0.511  0.526  0.488  0.009
     occupations, | n_(i1, i2)^(sigma1, sigma2) |:
       0.020  0.000  0.000  0.000  0.000  0.000  0.005  0.005  0.001  0.001
       0.000  0.091  0.002  0.001  0.060  0.005  0.000  0.000  0.003  0.003
       0.000  0.002  0.092  0.060  0.001  0.005  0.000  0.000  0.003  0.003
       0.000  0.001  0.060  0.065  0.004  0.000  0.004  0.003  0.000  0.001
       0.000  0.060  0.001  0.004  0.065  0.000  0.003  0.003  0.000  0.000
       0.000  0.005  0.005  0.000  0.000  0.998  0.000  0.000  0.000  0.000
       0.005  0.000  0.000  0.004  0.003  0.000  0.997  0.000  0.000  0.001
       0.005  0.000  0.000  0.003  0.003  0.000  0.000  0.997  0.001  0.000
       0.001  0.003  0.003  0.000  0.000  0.000  0.000  0.001  0.997  0.000
       0.001  0.003  0.003  0.001  0.000  0.000  0.001  0.000  0.000  0.997
     Atomic magnetic moment mx, my, mz =    -0.000000   -0.000641   -4.651378

     Number of occupied Hubbard levels =   10.6127
 --- in v_hubbard ---
Hub. E (dc, noflip, flip, total)    6.3519   6.4153  -0.0001   0.0633
 -------

 ==============================================================================
     atom number    1 relative position :    0.0000   0.0000   0.0000
     charge :    13.589074  (integrated on a sphere of radius 0.045)
     magnetization :         -0.000000   -0.000051    4.582527
     magnetization/charge:   -0.000000   -0.000004    0.337221
     polar coord.: r, theta, phi [deg] :     4.582527    0.000635  -90.000000

 ==============================================================================

 ==============================================================================
     atom number    2 relative position :    0.0000  -0.0000   1.4937
     charge :    13.596348  (integrated on a sphere of radius 0.045)
     magnetization :          0.000000   -0.000052   -4.581045
     magnetization/charge:    0.000000   -0.000004   -0.336932
     polar coord.: r, theta, phi [deg] :     4.581045  179.999352  -90.000000

 ==============================================================================

 ==============================================================================
     atom number    3 relative position :    0.0000  -0.0000   0.6347
     charge :    12.687190  (integrated on a sphere of radius 0.046)
     magnetization :         -0.000000    0.000207   -0.008211
     magnetization/charge:   -0.000000    0.000016   -0.000647
     polar coord.: r, theta, phi [deg] :     0.008214  178.555066   90.000000

 ==============================================================================

 ==============================================================================
     atom number    4 relative position :    0.0000  -0.0000   2.1284
     charge :    12.672779  (integrated on a sphere of radius 0.046)
     magnetization :         -0.000000   -0.000268    0.012343
     magnetization/charge:   -0.000000   -0.000021    0.000974
     polar coord.: r, theta, phi [deg] :     0.012346    1.245760  -90.000000

 ==============================================================================

 ==============================================================================
     atom number    5 relative position :    0.0000  -0.0000   0.8590
     charge :    12.672779  (integrated on a sphere of radius 0.046)
     magnetization :          0.000000   -0.000268    0.012343
     magnetization/charge:    0.000000   -0.000021    0.000974
     polar coord.: r, theta, phi [deg] :     0.012346    1.245760  -90.000000

 ==============================================================================

 ==============================================================================
     atom number    6 relative position :    0.0000  -0.0000   2.3528
     charge :    12.687190  (integrated on a sphere of radius 0.046)
     magnetization :         -0.000000    0.000207   -0.008211
     magnetization/charge:   -0.000000    0.000016   -0.000647
     polar coord.: r, theta, phi [deg] :     0.008214  178.555066   90.000000

 ==============================================================================

 ==============================================================================
     atom number    7 relative position :    0.0000  -0.0000   0.1992
     charge :     3.828232  (integrated on a sphere of radius 0.045)
     magnetization :          0.000000    0.000315    0.008254
     magnetization/charge:    0.000000    0.000082    0.002156
     polar coord.: r, theta, phi [deg] :     0.008260    2.188509   90.000000

 ==============================================================================

 ==============================================================================
     atom number    8 relative position :    0.0000  -0.0000   1.6929
     charge :     3.825510  (integrated on a sphere of radius 0.045)
     magnetization :         -0.000000    0.000350   -0.004139
     magnetization/charge:   -0.000000    0.000092   -0.001082
     polar coord.: r, theta, phi [deg] :     0.004154  175.166157   90.000000

 ==============================================================================

 ==============================================================================
     atom number    9 relative position :    0.0000  -0.0000   1.2945
     charge :     3.825510  (integrated on a sphere of radius 0.045)
     magnetization :          0.000000    0.000350   -0.004139
     magnetization/charge:    0.000000    0.000092   -0.001082
     polar coord.: r, theta, phi [deg] :     0.004154  175.166157   90.000000

 ==============================================================================

 ==============================================================================
     atom number   10 relative position :    0.0000  -0.0000   2.7883
     charge :     3.828232  (integrated on a sphere of radius 0.045)
     magnetization :         -0.000000    0.000315    0.008254
     magnetization/charge:   -0.000000    0.000082    0.002156
     polar coord.: r, theta, phi [deg] :     0.008260    2.188509   90.000000

 ==============================================================================

 ==============================================================================
     atom number   11 relative position :    0.0000  -0.0000   0.4392
     charge :     3.895726  (integrated on a sphere of radius 0.045)
     magnetization :          0.000000    0.000003   -0.017451
     magnetization/charge:    0.000000    0.000001   -0.004479
     polar coord.: r, theta, phi [deg] :     0.017451  179.988979   90.000000

 ==============================================================================

 ==============================================================================
     atom number   12 relative position :    0.0000  -0.0000   1.9330
     charge :     3.891985  (integrated on a sphere of radius 0.045)
     magnetization :         -0.000000   -0.000189    0.014879
     magnetization/charge:   -0.000000   -0.000049    0.003823
     polar coord.: r, theta, phi [deg] :     0.014880    0.727285  -90.000000

 ==============================================================================

 ==============================================================================
     atom number   13 relative position :    0.0000  -0.0000   1.0545
     charge :     3.891985  (integrated on a sphere of radius 0.045)
     magnetization :         -0.000000   -0.000189    0.014879
     magnetization/charge:   -0.000000   -0.000049    0.003823
     polar coord.: r, theta, phi [deg] :     0.014880    0.727285  -90.000000

 ==============================================================================

 ==============================================================================
     atom number   14 relative position :    0.0000  -0.0000   2.5482
     charge :     3.895726  (integrated on a sphere of radius 0.045)
     magnetization :          0.000000    0.000003   -0.017451
     magnetization/charge:    0.000000    0.000001   -0.004479
     polar coord.: r, theta, phi [deg] :     0.017451  179.988979   90.000000

 ==============================================================================

     total cpu time spent up to now is      920.4 secs

     total energy              =   -7139.95134544 Ry
     estimated scf accuracy    <       5.72633552 Ry

     total magnetization       =    -0.00    -0.00     0.01 Bohr mag/cell
     absolute magnetization    =    10.26 Bohr mag/cell

     iteration #  4     ecut=    60.00 Ry     beta= 0.70
     Davidson diagonalization with overlap

---- Real-time Memory Report at c_bands before calling an iterative solver
           464 MiB given to the printing process from OS
             0 MiB allocation reported by mallinfo(arena+hblkhd)
        109742 MiB available memory on the node where the printing process lives
------------------
     c_bands:  2 eigenvalues not converged
     c_bands:  2 eigenvalues not converged
     ethr =  4.23E-04,  avg # of iterations = 11.0

     ================= HUBBARD OCCUPATIONS ================
     ------------------------ ATOM    1 ------------------------
     Tr[ns(  1)] (up, down, total) =   4.98379  0.34376  5.32755
     eigenvalues:
       0.016  0.017  0.017  0.143  0.151  0.995  0.995  0.998  0.998  0.998
     eigenvectors (columns):
      -0.005 -0.000  0.000 -0.000  0.006  0.002  0.002  0.004  0.006 -1.000
       0.000  0.000 -0.000  0.000 -0.000  0.000  0.000 -0.000  0.000  0.000
       0.001 -0.004  0.005 -0.003  0.000  0.550  0.517  0.446  0.481  0.007
      -0.000 -0.001 -0.003 -0.004 -0.000 -0.439 -0.487  0.557  0.509  0.003
      -0.000 -0.000 -0.000  0.000 -0.000 -0.000 -0.000 -0.000  0.000  0.000
      -0.000 -0.000  0.000  0.000  0.000  0.000  0.000 -0.000  0.000  0.000
      -0.399  0.140  0.464  0.534  0.567  0.000 -0.003 -0.000  0.004  0.005
       0.000  0.000  0.000 -0.000  0.000  0.000  0.000  0.000 -0.000 -0.000
       0.000  0.000  0.000  0.000 -0.000  0.000  0.000  0.000 -0.000 -0.000
      -0.527  0.160  0.551 -0.453 -0.434  0.000 -0.004 -0.000 -0.003  0.000
     occupations, | n_(i1, i2)^(sigma1, sigma2) |:
       0.998  0.000  0.000  0.000  0.000  0.000  0.005  0.005  0.000  0.001
       0.000  0.996  0.000  0.000  0.001  0.005  0.000  0.000  0.003  0.003
       0.000  0.000  0.996  0.001  0.000  0.005  0.000  0.000  0.003  0.003
       0.000  0.000  0.001  0.997  0.000  0.000  0.003  0.003  0.000  0.000
       0.000  0.001  0.000  0.000  0.997  0.000  0.003  0.003  0.000  0.000
       0.000  0.005  0.005  0.000  0.000  0.017  0.000  0.000  0.000  0.000
       0.005  0.000  0.000  0.003  0.003  0.000  0.096  0.006  0.001  0.064
       0.005  0.000  0.000  0.003  0.003  0.000  0.006  0.095  0.064  0.002
       0.000  0.003  0.003  0.000  0.000  0.000  0.001  0.064  0.068  0.002
       0.001  0.003  0.003  0.000  0.000  0.000  0.064  0.002  0.002  0.068
     Atomic magnetic moment mx, my, mz =     0.000000   -0.000232    4.640038
     ------------------------ ATOM    2 ------------------------
     Tr[ns(  2)] (up, down, total) =   0.30114  4.96732  5.26847
     eigenvalues:
       0.015  0.016  0.016  0.124  0.130  0.987  0.988  0.997  0.998  0.998
     eigenvectors (columns):
      -0.497 -0.863 -0.092 -0.000 -0.001  0.000 -0.006 -0.006  0.000  0.000
      -0.000  0.000  0.000  0.000 -0.000 -0.000  0.000  0.000  0.000  0.000
      -0.353  0.149  0.512  0.554 -0.533  0.004  0.000  0.000  0.003 -0.006
      -0.458  0.201  0.584 -0.429  0.474  0.003  0.000 -0.000 -0.004  0.000
      -0.000  0.000  0.000 -0.000  0.000 -0.000  0.000 -0.000 -0.000 -0.000
       0.000 -0.000 -0.000 -0.000  0.000 -0.000 -0.000  0.000  0.000  0.000
      -0.003 -0.005 -0.004 -0.000 -0.003  0.419  0.559  0.464 -0.544 -0.002
      -0.000 -0.000 -0.000 -0.000 -0.000 -0.000  0.000 -0.000 -0.000 -0.000
       0.000  0.000 -0.000 -0.000 -0.000  0.000 -0.000 -0.000 -0.000 -0.000
       0.000 -0.000  0.004 -0.000 -0.004 -0.499 -0.512  0.519 -0.469 -0.003
     occupations, | n_(i1, i2)^(sigma1, sigma2) |:
       0.016  0.000  0.000  0.000  0.000  0.000  0.006  0.006  0.000  0.000
       0.000  0.081  0.002  0.002  0.055  0.005  0.000  0.000  0.004  0.004
       0.000  0.002  0.081  0.055  0.002  0.005  0.000  0.000  0.004  0.004
       0.000  0.002  0.055  0.061  0.005  0.000  0.003  0.003  0.000  0.000
       0.000  0.055  0.002  0.005  0.061  0.000  0.003  0.003  0.000  0.000
       0.000  0.005  0.005  0.000  0.000  0.998  0.000  0.000  0.000  0.000
       0.006  0.000  0.000  0.003  0.003  0.000  0.993  0.000  0.000  0.005
       0.006  0.000  0.000  0.003  0.003  0.000  0.000  0.992  0.005  0.000
       0.000  0.004  0.004  0.000  0.000  0.000  0.000  0.005  0.992  0.001
       0.000  0.004  0.004  0.000  0.000  0.000  0.005  0.000  0.001  0.992
     Atomic magnetic moment mx, my, mz =    -0.000000    0.000005   -4.666181

     Number of occupied Hubbard levels =   10.5960
 --- in v_hubbard ---
Hub. E (dc, noflip, flip, total)    6.3689   6.4340  -0.0001   0.0651
 -------

 ==============================================================================
     atom number    1 relative position :    0.0000   0.0000   0.0000
     charge :    13.595439  (integrated on a sphere of radius 0.045)
     magnetization :          0.000000   -0.000077    4.583116
     magnetization/charge:    0.000000   -0.000006    0.337107
     polar coord.: r, theta, phi [deg] :     4.583116    0.000967  -90.000000

 ==============================================================================

 ==============================================================================
     atom number    2 relative position :    0.0000  -0.0000   1.4937
     charge :    13.593843  (integrated on a sphere of radius 0.045)
     magnetization :          0.000000   -0.000056   -4.581173
     magnetization/charge:    0.000000   -0.000004   -0.337004
     polar coord.: r, theta, phi [deg] :     4.581173  179.999298  -90.000000

 ==============================================================================

 ==============================================================================
     atom number    3 relative position :    0.0000  -0.0000   0.6347
     charge :    12.683183  (integrated on a sphere of radius 0.046)
     magnetization :          0.000000    0.000204   -0.008833
     magnetization/charge:    0.000000    0.000016   -0.000696
     polar coord.: r, theta, phi [deg] :     0.008835  178.677903   90.000000

 ==============================================================================

 ==============================================================================
     atom number    4 relative position :    0.0000  -0.0000   2.1284
     charge :    12.685668  (integrated on a sphere of radius 0.046)
     magnetization :         -0.000000   -0.000306    0.012457
     magnetization/charge:   -0.000000   -0.000024    0.000982
     polar coord.: r, theta, phi [deg] :     0.012460    1.406081  -90.000000

 ==============================================================================

 ==============================================================================
     atom number    5 relative position :    0.0000  -0.0000   0.8590
     charge :    12.685668  (integrated on a sphere of radius 0.046)
     magnetization :         -0.000000   -0.000306    0.012457
     magnetization/charge:   -0.000000   -0.000024    0.000982
     polar coord.: r, theta, phi [deg] :     0.012460    1.406081  -90.000000

 ==============================================================================

 ==============================================================================
     atom number    6 relative position :    0.0000  -0.0000   2.3528
     charge :    12.683183  (integrated on a sphere of radius 0.046)
     magnetization :          0.000000    0.000204   -0.008833
     magnetization/charge:    0.000000    0.000016   -0.000696
     polar coord.: r, theta, phi [deg] :     0.008835  178.677903   90.000000

 ==============================================================================

 ==============================================================================
     atom number    7 relative position :    0.0000  -0.0000   0.1992
     charge :     3.818453  (integrated on a sphere of radius 0.045)
     magnetization :         -0.000000    0.000300    0.009908
     magnetization/charge:   -0.000000    0.000079    0.002595
     polar coord.: r, theta, phi [deg] :     0.009913    1.734460   90.000000

 ==============================================================================

 ==============================================================================
     atom number    8 relative position :    0.0000  -0.0000   1.6929
     charge :     3.820074  (integrated on a sphere of radius 0.045)
     magnetization :         -0.000000    0.000326   -0.003892
     magnetization/charge:   -0.000000    0.000085   -0.001019
     polar coord.: r, theta, phi [deg] :     0.003906  175.210383   90.000000

 ==============================================================================

 ==============================================================================
     atom number    9 relative position :    0.0000  -0.0000   1.2945
     charge :     3.820074  (integrated on a sphere of radius 0.045)
     magnetization :          0.000000    0.000326   -0.003892
     magnetization/charge:    0.000000    0.000085   -0.001019
     polar coord.: r, theta, phi [deg] :     0.003906  175.210383   90.000000

 ==============================================================================

 ==============================================================================
     atom number   10 relative position :    0.0000  -0.0000   2.7883
     charge :     3.818453  (integrated on a sphere of radius 0.045)
     magnetization :          0.000000    0.000300    0.009908
     magnetization/charge:    0.000000    0.000079    0.002595
     polar coord.: r, theta, phi [deg] :     0.009913    1.734460   90.000000

 ==============================================================================

 ==============================================================================
     atom number   11 relative position :    0.0000  -0.0000   0.4392
     charge :     3.886107  (integrated on a sphere of radius 0.045)
     magnetization :          0.000000   -0.000022   -0.014075
     magnetization/charge:    0.000000   -0.000006   -0.003622
     polar coord.: r, theta, phi [deg] :     0.014075  179.912342  -90.000000

 ==============================================================================

 ==============================================================================
     atom number   12 relative position :    0.0000  -0.0000   1.9330
     charge :     3.897092  (integrated on a sphere of radius 0.045)
     magnetization :          0.000000   -0.000229    0.014922
     magnetization/charge:    0.000000   -0.000059    0.003829
     polar coord.: r, theta, phi [deg] :     0.014923    0.878224  -90.000000

 ==============================================================================

 ==============================================================================
     atom number   13 relative position :    0.0000  -0.0000   1.0545
     charge :     3.897092  (integrated on a sphere of radius 0.045)
     magnetization :          0.000000   -0.000229    0.014922
     magnetization/charge:    0.000000   -0.000059    0.003829
     polar coord.: r, theta, phi [deg] :     0.014923    0.878224  -90.000000

 ==============================================================================

 ==============================================================================
     atom number   14 relative position :    0.0000  -0.0000   2.5482
     charge :     3.886107  (integrated on a sphere of radius 0.045)
     magnetization :         -0.000000   -0.000022   -0.014075
     magnetization/charge:   -0.000000   -0.000006   -0.003622
     polar coord.: r, theta, phi [deg] :     0.014075  179.912342  -90.000000

 ==============================================================================

     total cpu time spent up to now is     1080.7 secs

     total energy              =   -7140.22530869 Ry
     estimated scf accuracy    <       1.95119163 Ry

     total magnetization       =     0.00    -0.01     0.28 Bohr mag/cell
     absolute magnetization    =    10.18 Bohr mag/cell

     iteration #  5     ecut=    60.00 Ry     beta= 0.70
     Davidson diagonalization with overlap

---- Real-time Memory Report at c_bands before calling an iterative solver
           467 MiB given to the printing process from OS
             0 MiB allocation reported by mallinfo(arena+hblkhd)
        109613 MiB available memory on the node where the printing process lives
------------------
     ethr =  4.23E-04,  avg # of iterations =  9.8

     ================= HUBBARD OCCUPATIONS ================
     ------------------------ ATOM    1 ------------------------
     Tr[ns(  1)] (up, down, total) =   4.96999  0.30632  5.27632
     eigenvalues:
       0.016  0.016  0.016  0.128  0.131  0.987  0.989  0.998  0.998  0.998
     eigenvectors (columns):
       0.001 -0.002  0.004 -0.007  0.000 -0.002 -0.004 -0.002 -0.002 -1.000
      -0.000 -0.000  0.000 -0.000  0.000 -0.000  0.000 -0.000 -0.000  0.000
      -0.005  0.003  0.003  0.000  0.003  0.441  0.531  0.491 -0.532 -0.003
      -0.000 -0.003 -0.002 -0.000  0.004 -0.528 -0.495  0.528 -0.445  0.003
       0.000  0.000 -0.000 -0.000  0.000  0.000 -0.000 -0.000 -0.000  0.000
       0.000  0.000 -0.000 -0.000  0.000 -0.000  0.000 -0.000 -0.000  0.000
       0.103  0.206  0.589 -0.571 -0.523 -0.004  0.000  0.000 -0.003  0.006
      -0.000 -0.000  0.000  0.000 -0.000  0.000 -0.000  0.000  0.000 -0.000
      -0.000 -0.000  0.000 -0.000  0.000  0.000 -0.000  0.000  0.000  0.000
       0.132  0.204  0.736  0.438  0.455 -0.003 -0.000 -0.000  0.004  0.000
     occupations, | n_(i1, i2)^(sigma1, sigma2) |:
       0.998  0.000  0.000  0.000  0.000  0.000  0.005  0.005  0.000  0.000
       0.000  0.993  0.000  0.001  0.005  0.006  0.000  0.000  0.003  0.003
       0.000  0.000  0.993  0.005  0.001  0.005  0.000  0.000  0.003  0.003
       0.000  0.001  0.005  0.993  0.001  0.000  0.003  0.003  0.000  0.000
       0.000  0.005  0.001  0.001  0.993  0.000  0.003  0.003  0.000  0.000
       0.000  0.006  0.005  0.000  0.000  0.016  0.000  0.000  0.000  0.000
       0.005  0.000  0.000  0.003  0.003  0.000  0.084  0.002  0.002  0.056
       0.005  0.000  0.000  0.003  0.003  0.000  0.002  0.084  0.056  0.002
       0.000  0.003  0.003  0.000  0.000  0.000  0.002  0.056  0.061  0.004
       0.000  0.003  0.003  0.000  0.000  0.000  0.056  0.002  0.004  0.061
     Atomic magnetic moment mx, my, mz =     0.000000   -0.000569    4.663670
     ------------------------ ATOM    2 ------------------------
     Tr[ns(  2)] (up, down, total) =   0.32094  4.98098  5.30192
     eigenvalues:
       0.016  0.016  0.016  0.136  0.136  0.993  0.994  0.998  0.998  0.998
     eigenvectors (columns):
      -0.013  0.003 -1.000 -0.000  0.001 -0.006 -0.000  0.005  0.000 -0.000
      -0.000  0.000  0.000  0.000  0.000 -0.000 -0.000 -0.000  0.000 -0.000
      -0.369  0.526  0.007  0.506  0.576  0.000 -0.004  0.000  0.004  0.006
      -0.477  0.600  0.008 -0.392 -0.508  0.000 -0.004  0.000 -0.003  0.000
      -0.000  0.000  0.000 -0.000 -0.000 -0.000 -0.000  0.000 -0.000 -0.000
       0.000 -0.000 -0.000 -0.000 -0.000 -0.000  0.000 -0.000 -0.000 -0.000
      -0.001 -0.004 -0.006 -0.000  0.003  0.563 -0.502 -0.450 -0.478  0.001
       0.000  0.000  0.000  0.000 -0.000 -0.000 -0.000  0.000 -0.000  0.000
       0.000 -0.000  0.000 -0.000 -0.000  0.000  0.000  0.000 -0.000  0.000
       0.000  0.004 -0.000 -0.000  0.004 -0.458  0.470 -0.553 -0.513  0.001
     occupations, | n_(i1, i2)^(sigma1, sigma2) |:
       0.016  0.000  0.000  0.000  0.000  0.000  0.006  0.006  0.000  0.000
       0.000  0.087  0.003  0.001  0.059  0.005  0.000  0.000  0.003  0.003
       0.000  0.003  0.087  0.059  0.001  0.005  0.000  0.000  0.003  0.004
       0.000  0.001  0.059  0.066  0.004  0.000  0.003  0.003  0.000  0.000
       0.000  0.059  0.001  0.004  0.066  0.000  0.003  0.003  0.000  0.000
       0.000  0.005  0.005  0.000  0.000  0.998  0.000  0.000  0.000  0.000
       0.006  0.000  0.000  0.003  0.003  0.000  0.995  0.000  0.000  0.002
       0.006  0.000  0.000  0.003  0.003  0.000  0.000  0.995  0.002  0.000
       0.000  0.003  0.003  0.000  0.000  0.000  0.000  0.002  0.996  0.000
       0.000  0.003  0.004  0.000  0.000  0.000  0.002  0.000  0.000  0.996
     Atomic magnetic moment mx, my, mz =    -0.000000   -0.000345   -4.660041

     Number of occupied Hubbard levels =   10.5782
 --- in v_hubbard ---
Hub. E (dc, noflip, flip, total)    6.4997   6.5776  -0.0001   0.0778
 -------

 ==============================================================================
     atom number    1 relative position :    0.0000   0.0000   0.0000
     charge :    13.610629  (integrated on a sphere of radius 0.045)
     magnetization :         -0.000000   -0.000440    4.586174
[...]
     6.7725   6.7872   6.8755   6.8837   6.9590   6.9597   7.0458   7.0459
     7.2639   7.2660   7.3478   7.3554   7.5643   7.5699   7.5703   7.5990
     7.6830   7.6917

     occupation numbers 
     1.0000   1.0000   1.0000   1.0000   1.0000   1.0000   1.0000   1.0000
     1.0000   1.0000   1.0000   1.0000   1.0000   1.0000   1.0000   1.0000
     1.0000   1.0000   1.0000   1.0000   1.0000   1.0000   1.0000   1.0000
     1.0000   1.0000   1.0000   1.0000   1.0000   1.0000   1.0000   1.0000
     1.0000   1.0000   1.0000   1.0000   1.0000   1.0000   1.0000   1.0000
     1.0000   1.0000   1.0000   1.0000   1.0000   1.0000   1.0000   1.0000
     1.0000   1.0000   1.0000   1.0000   1.0000   1.0000   1.0000   1.0000
     1.0000   1.0000   1.0000   1.0000   1.0000   1.0000   1.0000   1.0000
     1.0000   1.0000   1.0000   1.0000   1.0000   1.0000   1.0000   1.0000
     1.0000   1.0000   1.0000   1.0000   1.0000   1.0000   1.0000   1.0000
     1.0000   1.0000   1.0000   1.0000   1.0000   1.0000   1.0000   1.0000
     1.0000   1.0000   1.0000   1.0000   1.0000   1.0000   1.0000   1.0000
     1.0000   1.0000   1.0000   1.0000   1.0000   1.0000   1.0000   1.0000
     1.0000   1.0000   1.0000   1.0000   1.0000   1.0000   1.0000   1.0000
     1.0000   1.0000   1.0000   1.0000   1.0000   1.0000   1.0000   1.0000
     1.0000   1.0000   1.0000   1.0000   1.0000   1.0000   1.0000   1.0000
     1.0000   1.0000   1.0000   1.0000   1.0000   1.0000   1.0000   1.0000
     1.0000   1.0000

          k = 3.1612 1.8251-0.1674 ( 23516 PWs)   bands (ev):

   -74.8474 -74.8437 -69.9728 -69.9688 -44.0684 -44.0648 -43.6957 -43.6918
   -43.1546 -43.1510 -39.1347 -39.1307 -38.7516 -38.7477 -38.3795 -38.3755
   -16.8548 -16.8548 -16.8481 -16.8481 -16.8481 -16.8480 -16.8470 -16.8469
   -16.8433 -16.8433 -16.8424 -16.8423 -16.8402 -16.8402 -16.8386 -16.8386
   -13.8817 -13.8817 -13.8742 -13.8742 -13.8719 -13.8719 -13.8717 -13.8716
   -13.8656 -13.8656 -13.8637 -13.8636 -13.8606 -13.8606 -13.8589 -13.8589
   -13.8532 -13.8532 -13.8516 -13.8515 -13.8494 -13.8494 -13.8476 -13.8476
    -3.7557  -3.7554  -3.7532  -3.7523  -3.7094  -3.7080  -3.7035  -3.7017
    -3.1251  -3.1236  -3.1141  -3.1126  -3.0261  -3.0259  -2.9461  -2.9430
    -2.3244  -2.3243  -2.2824  -2.2824  -2.1207  -2.1191  -2.0918  -2.0902
     1.7726   1.7767   1.9192   1.9231   1.9719   1.9753   2.2156   2.2192
     2.3056   2.3087   2.6142   2.6153   2.7240   2.7256   3.0008   3.0034
     3.1470   3.1534   3.6333   3.6379   3.7235   3.7260   4.0753   4.0758
     4.0920   4.0933   4.5784   4.5821   4.6126   4.6185   4.7621   4.7684
     4.7912   4.8008   4.9300   4.9361   4.9572   4.9711   5.4219   5.4274
     5.4765   5.4792   5.9024   5.9063   5.9262   5.9290   6.1092   6.1143
     6.3504   6.3524   6.4372   6.4394   6.7304   6.7310   7.0819   7.0838
     7.2135   7.2150

     occupation numbers 
     1.0000   1.0000   1.0000   1.0000   1.0000   1.0000   1.0000   1.0000
     1.0000   1.0000   1.0000   1.0000   1.0000   1.0000   1.0000   1.0000
     1.0000   1.0000   1.0000   1.0000   1.0000   1.0000   1.0000   1.0000
     1.0000   1.0000   1.0000   1.0000   1.0000   1.0000   1.0000   1.0000
     1.0000   1.0000   1.0000   1.0000   1.0000   1.0000   1.0000   1.0000
     1.0000   1.0000   1.0000   1.0000   1.0000   1.0000   1.0000   1.0000
     1.0000   1.0000   1.0000   1.0000   1.0000   1.0000   1.0000   1.0000
     1.0000   1.0000   1.0000   1.0000   1.0000   1.0000   1.0000   1.0000
     1.0000   1.0000   1.0000   1.0000   1.0000   1.0000   1.0000   1.0000
     1.0000   1.0000   1.0000   1.0000   1.0000   1.0000   1.0000   1.0000
     1.0000   1.0000   1.0000   1.0000   1.0000   1.0000   1.0000   1.0000
     1.0000   1.0000   1.0000   1.0000   1.0000   1.0000   1.0000   1.0000
     1.0000   1.0000   1.0000   1.0000   1.0000   1.0000   1.0000   1.0000
     1.0000   1.0000   1.0000   1.0000   1.0000   1.0000   1.0000   1.0000
     1.0000   1.0000   1.0000   1.0000   1.0000   1.0000   1.0000   1.0000
     1.0000   1.0000   1.0000   1.0000   1.0000   1.0000   1.0000   1.0000
     1.0000   1.0000   1.0000   1.0000   1.0000   1.0000   1.0000   1.0000
     1.0000   1.0000

          k = 0.0000-3.6502-0.1674 ( 23516 PWs)   bands (ev):

   -74.8474 -74.8437 -69.9728 -69.9688 -44.0684 -44.0648 -43.6957 -43.6918
   -43.1546 -43.1510 -39.1347 -39.1307 -38.7516 -38.7477 -38.3795 -38.3755
   -16.8538 -16.8538 -16.8490 -16.8490 -16.8487 -16.8487 -16.8462 -16.8461
   -16.8446 -16.8446 -16.8422 -16.8422 -16.8405 -16.8405 -16.8375 -16.8375
   -13.8783 -13.8783 -13.8758 -13.8757 -13.8742 -13.8742 -13.8720 -13.8720
   -13.8671 -13.8671 -13.8636 -13.8636 -13.8602 -13.8601 -13.8560 -13.8560
   -13.8535 -13.8534 -13.8528 -13.8528 -13.8498 -13.8498 -13.8469 -13.8468
    -3.7559  -3.7556  -3.7528  -3.7521  -3.7094  -3.7079  -3.7036  -3.7017
    -3.1250  -3.1237  -3.1142  -3.1126  -3.0261  -3.0259  -2.9461  -2.9430
    -2.3244  -2.3242  -2.2825  -2.2824  -2.1206  -2.1192  -2.0918  -2.0903
     1.7726   1.7767   1.9192   1.9231   1.9718   1.9753   2.2156   2.2193
     2.3056   2.3088   2.6140   2.6155   2.7242   2.7255   3.0005   3.0036
     3.1467   3.1535   3.6326   3.6388   3.7224   3.7266   4.0750   4.0756
     4.0922   4.0936   4.5790   4.5809   4.6136   4.6181   4.7621   4.7691
     4.7901   4.8007   4.9302   4.9370   4.9567   4.9711   5.4218   5.4278
     5.4762   5.4791   5.9023   5.9063   5.9262   5.9292   6.1085   6.1145
     6.3508   6.3524   6.4368   6.4398   6.7308   6.7310   7.0819   7.0834
     7.2137   7.2151

     occupation numbers 
     1.0000   1.0000   1.0000   1.0000   1.0000   1.0000   1.0000   1.0000
     1.0000   1.0000   1.0000   1.0000   1.0000   1.0000   1.0000   1.0000
     1.0000   1.0000   1.0000   1.0000   1.0000   1.0000   1.0000   1.0000
     1.0000   1.0000   1.0000   1.0000   1.0000   1.0000   1.0000   1.0000
     1.0000   1.0000   1.0000   1.0000   1.0000   1.0000   1.0000   1.0000
     1.0000   1.0000   1.0000   1.0000   1.0000   1.0000   1.0000   1.0000
     1.0000   1.0000   1.0000   1.0000   1.0000   1.0000   1.0000   1.0000
     1.0000   1.0000   1.0000   1.0000   1.0000   1.0000   1.0000   1.0000
     1.0000   1.0000   1.0000   1.0000   1.0000   1.0000   1.0000   1.0000
     1.0000   1.0000   1.0000   1.0000   1.0000   1.0000   1.0000   1.0000
     1.0000   1.0000   1.0000   1.0000   1.0000   1.0000   1.0000   1.0000
     1.0000   1.0000   1.0000   1.0000   1.0000   1.0000   1.0000   1.0000
     1.0000   1.0000   1.0000   1.0000   1.0000   1.0000   1.0000   1.0000
     1.0000   1.0000   1.0000   1.0000   1.0000   1.0000   1.0000   1.0000
     1.0000   1.0000   1.0000   1.0000   1.0000   1.0000   1.0000   1.0000
     1.0000   1.0000   1.0000   1.0000   1.0000   1.0000   1.0000   1.0000
     1.0000   1.0000   1.0000   1.0000   1.0000   1.0000   1.0000   1.0000
     1.0000   1.0000

          k = 3.1612-1.8251-0.3347 ( 23494 PWs)   bands (ev):

   -74.8474 -74.8437 -69.9728 -69.9688 -44.0684 -44.0648 -43.6957 -43.6918
   -43.1546 -43.1509 -39.1347 -39.1307 -38.7516 -38.7477 -38.3795 -38.3755
   -16.8548 -16.8547 -16.8481 -16.8481 -16.8480 -16.8480 -16.8469 -16.8469
   -16.8434 -16.8433 -16.8424 -16.8423 -16.8402 -16.8401 -16.8386 -16.8386
   -13.8817 -13.8816 -13.8742 -13.8742 -13.8719 -13.8719 -13.8717 -13.8716
   -13.8656 -13.8656 -13.8637 -13.8635 -13.8606 -13.8605 -13.8589 -13.8588
   -13.8532 -13.8531 -13.8515 -13.8515 -13.8494 -13.8494 -13.8476 -13.8475
    -3.7577  -3.7558  -3.7522  -3.7500  -3.7124  -3.7105  -3.7013  -3.6993
    -3.1405  -3.1393  -3.0881  -3.0859  -3.0403  -3.0382  -2.9439  -2.9407
    -2.3086  -2.3052  -2.3047  -2.3003  -2.1060  -2.1052  -2.1028  -2.1022
     1.7727   1.7769   1.9192   1.9231   1.9719   1.9753   2.2156   2.2193
     2.3056   2.3087   2.5947   2.5973   2.7624   2.7655   2.9848   2.9936
     3.1169   3.1266   3.6782   3.6866   3.8031   3.8103   3.8421   3.8447
     4.2802   4.2874   4.5137   4.5388   4.5586   4.5708   4.7282   4.7307
     4.7702   4.7782   4.9368   4.9560   5.1729   5.1857   5.2160   5.2264
     5.5564   5.5592   5.8223   5.8296   6.0334   6.0380   6.1167   6.1187
     6.2954   6.2965   6.4093   6.4103   6.8729   6.8842   6.9490   6.9517
     7.2034   7.2058

     occupation numbers 
     1.0000   1.0000   1.0000   1.0000   1.0000   1.0000   1.0000   1.0000
     1.0000   1.0000   1.0000   1.0000   1.0000   1.0000   1.0000   1.0000
     1.0000   1.0000   1.0000   1.0000   1.0000   1.0000   1.0000   1.0000
     1.0000   1.0000   1.0000   1.0000   1.0000   1.0000   1.0000   1.0000
     1.0000   1.0000   1.0000   1.0000   1.0000   1.0000   1.0000   1.0000
     1.0000   1.0000   1.0000   1.0000   1.0000   1.0000   1.0000   1.0000
     1.0000   1.0000   1.0000   1.0000   1.0000   1.0000   1.0000   1.0000
     1.0000   1.0000   1.0000   1.0000   1.0000   1.0000   1.0000   1.0000
     1.0000   1.0000   1.0000   1.0000   1.0000   1.0000   1.0000   1.0000
     1.0000   1.0000   1.0000   1.0000   1.0000   1.0000   1.0000   1.0000
     1.0000   1.0000   1.0000   1.0000   1.0000   1.0000   1.0000   1.0000
     1.0000   1.0000   1.0000   1.0000   1.0000   1.0000   1.0000   1.0000
     1.0000   1.0000   1.0000   1.0000   1.0000   1.0000   1.0000   1.0000
     1.0000   1.0000   1.0000   1.0000   1.0000   1.0000   1.0000   1.0000
     1.0000   1.0000   1.0000   1.0000   1.0000   1.0000   1.0000   1.0000
     1.0000   1.0000   1.0000   1.0000   1.0000   1.0000   1.0000   1.0000
     1.0000   1.0000   1.0000   1.0000   1.0000   1.0000   1.0000   1.0000
     1.0000   1.0000

          k = 0.0000 3.6502-0.3347 ( 23494 PWs)   bands (ev):

   -74.8474 -74.8437 -69.9728 -69.9688 -44.0684 -44.0648 -43.6957 -43.6918
   -43.1546 -43.1509 -39.1347 -39.1307 -38.7516 -38.7477 -38.3795 -38.3755
   -16.8538 -16.8537 -16.8490 -16.8489 -16.8487 -16.8486 -16.8462 -16.8461
   -16.8446 -16.8445 -16.8422 -16.8422 -16.8405 -16.8404 -16.8375 -16.8375
   -13.8783 -13.8782 -13.8758 -13.8757 -13.8742 -13.8742 -13.8720 -13.8719
   -13.8671 -13.8671 -13.8636 -13.8635 -13.8602 -13.8601 -13.8560 -13.8559
   -13.8535 -13.8534 -13.8528 -13.8527 -13.8498 -13.8498 -13.8468 -13.8468
    -3.7580  -3.7554  -3.7525  -3.7497  -3.7124  -3.7105  -3.7013  -3.6993
    -3.1402  -3.1397  -3.0879  -3.0861  -3.0404  -3.0381  -2.9439  -2.9407
    -2.3081  -2.3057  -2.3040  -2.3010  -2.1054  -2.1048  -2.1035  -2.1026
     1.7727   1.7768   1.9193   1.9231   1.9719   1.9753   2.2156   2.2193
     2.3055   2.3087   2.5944   2.5976   2.7619   2.7661   2.9859   2.9924
     3.1173   3.1262   3.6787   3.6861   3.8021   3.8108   3.8414   3.8454
     4.2800   4.2875   4.5130   4.5396   4.5599   4.5695   4.7282   4.7306
     4.7711   4.7771   4.9373   4.9561   5.1718   5.1858   5.2160   5.2272
     5.5556   5.5597   5.8218   5.8302   6.0335   6.0374   6.1165   6.1193
     6.2958   6.2963   6.4096   6.4098   6.8731   6.8839   6.9487   6.9522
     7.2036   7.2057

     occupation numbers 
     1.0000   1.0000   1.0000   1.0000   1.0000   1.0000   1.0000   1.0000
     1.0000   1.0000   1.0000   1.0000   1.0000   1.0000   1.0000   1.0000
     1.0000   1.0000   1.0000   1.0000   1.0000   1.0000   1.0000   1.0000
     1.0000   1.0000   1.0000   1.0000   1.0000   1.0000   1.0000   1.0000
     1.0000   1.0000   1.0000   1.0000   1.0000   1.0000   1.0000   1.0000
     1.0000   1.0000   1.0000   1.0000   1.0000   1.0000   1.0000   1.0000
     1.0000   1.0000   1.0000   1.0000   1.0000   1.0000   1.0000   1.0000
     1.0000   1.0000   1.0000   1.0000   1.0000   1.0000   1.0000   1.0000
     1.0000   1.0000   1.0000   1.0000   1.0000   1.0000   1.0000   1.0000
     1.0000   1.0000   1.0000   1.0000   1.0000   1.0000   1.0000   1.0000
     1.0000   1.0000   1.0000   1.0000   1.0000   1.0000   1.0000   1.0000
     1.0000   1.0000   1.0000   1.0000   1.0000   1.0000   1.0000   1.0000
     1.0000   1.0000   1.0000   1.0000   1.0000   1.0000   1.0000   1.0000
     1.0000   1.0000   1.0000   1.0000   1.0000   1.0000   1.0000   1.0000
     1.0000   1.0000   1.0000   1.0000   1.0000   1.0000   1.0000   1.0000
     1.0000   1.0000   1.0000   1.0000   1.0000   1.0000   1.0000   1.0000
     1.0000   1.0000   1.0000   1.0000   1.0000   1.0000   1.0000   1.0000
     1.0000   1.0000

          k = 0.0000 0.0000-0.5021 ( 23456 PWs)   bands (ev):

   -74.8474 -74.8437 -69.9728 -69.9688 -44.0681 -44.0645 -43.6957 -43.6919
   -43.1542 -43.1506 -39.1342 -39.1302 -38.7517 -38.7478 -38.3789 -38.3749
   -16.8572 -16.8571 -16.8505 -16.8504 -16.8482 -16.8481 -16.8468 -16.8467
   -16.8452 -16.8451 -16.8438 -16.8436 -16.8410 -16.8408 -16.8404 -16.8402
   -13.8780 -13.8780 -13.8722 -13.8722 -13.8700 -13.8699 -13.8691 -13.8690
   -13.8686 -13.8685 -13.8623 -13.8621 -13.8621 -13.8620 -13.8614 -13.8612
   -13.8585 -13.8584 -13.8576 -13.8575 -13.8542 -13.8540 -13.8536 -13.8535
    -5.4097  -5.4089  -5.4045  -5.4030  -5.1754  -5.1751  -5.1733  -5.1725
    -3.7303  -3.7275  -3.6781  -3.6749  -3.1328  -3.1304  -3.1242  -3.1210
    -1.3014  -1.3011  -1.2692  -1.2676  -0.5636  -0.5613  -0.5543  -0.5539
     1.8446   1.8487   1.8772   1.8805   1.8948   1.8987   2.1043   2.1080
     2.1152   2.1191   4.1006   4.1012   4.1307   4.1368   4.9386   4.9412
     4.9676   4.9676   5.4625   5.4668   5.4955   5.4974   5.7760   5.7804
     5.8369   5.8443   6.1210   6.1271   6.3290   6.3319   6.3352   6.3370
     6.3661   6.3693   6.4056   6.4060   6.4844   6.4848   6.6879   6.6901
     6.7724   6.7755   6.9373   6.9440   6.9477   6.9530   7.0015   7.0046
     7.2840   7.2877   7.3260   7.3294   7.5358   7.5646   7.5702   7.5733
     7.7100   7.7225

     occupation numbers 
     1.0000   1.0000   1.0000   1.0000   1.0000   1.0000   1.0000   1.0000
     1.0000   1.0000   1.0000   1.0000   1.0000   1.0000   1.0000   1.0000
     1.0000   1.0000   1.0000   1.0000   1.0000   1.0000   1.0000   1.0000
     1.0000   1.0000   1.0000   1.0000   1.0000   1.0000   1.0000   1.0000
     1.0000   1.0000   1.0000   1.0000   1.0000   1.0000   1.0000   1.0000
     1.0000   1.0000   1.0000   1.0000   1.0000   1.0000   1.0000   1.0000
     1.0000   1.0000   1.0000   1.0000   1.0000   1.0000   1.0000   1.0000
     1.0000   1.0000   1.0000   1.0000   1.0000   1.0000   1.0000   1.0000
     1.0000   1.0000   1.0000   1.0000   1.0000   1.0000   1.0000   1.0000
     1.0000   1.0000   1.0000   1.0000   1.0000   1.0000   1.0000   1.0000
     1.0000   1.0000   1.0000   1.0000   1.0000   1.0000   1.0000   1.0000
     1.0000   1.0000   1.0000   1.0000   1.0000   1.0000   1.0000   1.0000
     1.0000   1.0000   1.0000   1.0000   1.0000   1.0000   1.0000   1.0000
     1.0000   1.0000   1.0000   1.0000   1.0000   1.0000   1.0000   1.0000
     1.0000   1.0000   1.0000   1.0000   1.0000   1.0000   1.0000   1.0000
     1.0000   1.0000   1.0000   1.0000   1.0000   1.0000   1.0000   1.0000
     1.0000   1.0000   1.0000   1.0000   1.0000   1.0000   1.0000   1.0000
     1.0000   1.0000

     highest occupied level (ev):     7.7225

!    total energy              =   -7140.35143601 Ry
     total all-electron energy =   -286038.418005 Ry
     estimated scf accuracy    <       0.00000995 Ry

     The total energy is the sum of the following terms:
     one-electron contribution =    -651.63880383 Ry
     hartree contribution      =     403.66604197 Ry
     xc contribution           =    -318.06194480 Ry
     ewald contribution        =    -672.20588499 Ry
     DFT-D3 Dispersion         =      -0.28928769 Ry
     Hubbard energy            =       0.08593564 Ry
     one-center paw contrib.   =   -5901.90749230 Ry
      -> PAW hartree energy AE =     161.22112766 Ry
      -> PAW hartree energy PS =    -162.32964950 Ry
      -> PAW xc energy AE      =    -103.83664933 Ry
      -> PAW xc energy PS      =      27.13391726 Ry
      -> total E_H with PAW    =     402.55752014 Ry
      -> total E_XC with PAW   =    -394.76467686 Ry

     total magnetization       =    -0.00    -0.00     0.01 Bohr mag/cell
     absolute magnetization    =    10.50 Bohr mag/cell

     convergence has been achieved in  20 iterations

     Writing all to output data dir ./tmp/MnBi2Te4.save/
 
     init_run     :     89.21s CPU     91.20s WALL (       1 calls)
     electrons    :   3160.42s CPU   3253.40s WALL (       1 calls)

     Called by init_run:
     wfcinit      :     86.71s CPU     88.41s WALL (       1 calls)
     wfcinit:atom :      0.01s CPU      0.01s WALL (       6 calls)
     wfcinit:wfcr :     85.79s CPU     87.44s WALL (       6 calls)
     potinit      :      1.26s CPU      1.39s WALL (       1 calls)
     hinit0       :      0.50s CPU      0.56s WALL (       1 calls)

     Called by electrons:
     c_bands      :   2517.72s CPU   2592.79s WALL (      20 calls)
     sum_band     :    604.61s CPU    620.01s WALL (      20 calls)
     v_of_rho     :     11.91s CPU     13.35s WALL (      21 calls)
     v_h          :      0.35s CPU      0.37s WALL (      21 calls)
     v_xc         :     11.55s CPU     12.97s WALL (      21 calls)
     newd         :     14.13s CPU     14.64s WALL (      21 calls)
     PAW_pot      :     11.32s CPU     11.81s WALL (      21 calls)
     mix_rho      :      1.21s CPU      1.32s WALL (      20 calls)
     energy_dftd3 :      0.05s CPU      0.05s WALL (       1 calls)

     Called by c_bands:
     init_us_2    :      0.58s CPU      0.60s WALL (     252 calls)
     init_us_2:cp :      0.58s CPU      0.60s WALL (     252 calls)
     cegterg      :   2510.39s CPU   2585.30s WALL (     120 calls)

     Called by sum_band:
     sum_band:wei :      0.00s CPU      0.00s WALL (      20 calls)
     sum_band:loo :    582.56s CPU    597.05s WALL (      20 calls)
     sum_band:buf :      0.15s CPU      0.17s WALL (     120 calls)
     sum_band:ini :      0.28s CPU      0.29s WALL (     120 calls)
     sum_band:cal :      3.19s CPU      3.44s WALL (     120 calls)
     sum_band:bec :      1.66s CPU      1.68s WALL (     120 calls)
     addusdens    :     17.27s CPU     18.00s WALL (      20 calls)
                                        0.00s GPU  (      20 calls)
     addusd:skk   :      0.01s CPU      0.01s WALL (      80 calls)
                                        0.00s GPU  (      80 calls)

     Called by *egterg:
     cdiaghg      :     21.51s CPU     21.70s WALL (    1078 calls)
     cegterg:over :      8.90s CPU      9.38s WALL (     958 calls)
     cegterg:upda :      4.53s CPU      4.60s WALL (     958 calls)
     cegterg:last :      7.96s CPU      8.07s WALL (     330 calls)
     h_psi        :   2536.05s CPU   2611.12s WALL (    1084 calls)
     s_psi        :     10.04s CPU     10.15s WALL (    1090 calls)
     g_psi        :      0.16s CPU      0.16s WALL (     958 calls)

     Called by h_psi:
     h_psi:calbec :     12.19s CPU     13.22s WALL (    1084 calls)
     vloc_psi     :   2506.43s CPU   2580.13s WALL (    1084 calls)
     add_vuspsi   :      9.73s CPU      9.87s WALL (    1084 calls)
     vhpsi        :      7.27s CPU      7.40s WALL (    1084 calls)

     General routines
     calbec       :     15.56s CPU     16.86s WALL (    1210 calls)
     fft          :      4.54s CPU      4.99s WALL (     603 calls)
     ffts         :      0.48s CPU      0.54s WALL (      80 calls)
     fftw         :   1741.78s CPU   1816.49s WALL (  240820 calls)
     davcio       :      0.00s CPU      0.01s WALL (       6 calls)
 
     Parallel routines

     Hubbard U routines
     new_ns_nc    :      1.37s CPU      1.41s WALL (      20 calls)
     vhpsi        :      7.27s CPU      7.40s WALL (    1084 calls)

     PAW routines
     PAW_pot      :     11.32s CPU     11.81s WALL (      21 calls)
     PAW_symme    :      0.05s CPU      0.06s WALL (      41 calls)
 
     PWSCF        :  54m10.62s CPU  55m46.33s WALL

 
   This run was terminated on:  12:12: 5  19Sep2025            

=------------------------------------------------------------------------------=
   JOB DONE.
=------------------------------------------------------------------------------=
